      -----------------------------------------------------------      
     |                   =====================                   |     
     |                           x T B                           |     
     |                   =====================                   |     
     |                         S. Grimme                         |     
     |          Mulliken Center for Theoretical Chemistry        |     
     |                    University of Bonn                     |     
     |                 Version 6.1.4 (SAW190525)                 |     
      -----------------------------------------------------------      

   This program is distributed in the hope that it will be useful,
   but WITHOUT ANY WARRANTY; without even the implied warranty of
   MERCHANTABILITY or FITNESS FOR A PARTICULAR PURPOSE.
   
   FOR NON-COMMERCIAL, ACADEMIA USE ONLY.
   
   Cite this work as:
   S. Grimme, C. Bannwarth, P. Shushkov, J. Comput. Theory Chem., 2017,
   13, 1989-2009. DOI: 10.1021/acs.jctc.7b00118
   C. Bannwarth, S. Ehlert and S. Grimme., J. Comput. Theory Chem., 2019,
   just accepted. DOI: 10.1021/acs.jctc.8b01176
   
   for sTDA-xTB:
   S. Grimme and C. Bannwarth, J. Chem. Phys., 2016, 145, 054103.
   DOI: 10.1063/1.4959605
   
   in the mass-spec context:
   V. Asgeirsson, C. Bauer and S. Grimme, Chem. Sci., 2017, 8, 4879.
   DOI: 10.1039/c7sc00601b
   
   for metadynamics refer to:
   S. Grimme, J. Chem. Theory Comput. Article ASAP, 2019,
   DOI: 10.1021/acs.jctc.9b00143
   
   with help from (in alphabetical order)
   C. Bannwarth, F. Bohle, G. Brandenburg, E. Caldeweyher, M. Checinski,
   S. Dohm, S. Ehlert, S. Ehrlich, F. März, H. Neugebauer, J. Pisarek,
   P. Pracht, P. Shushkov, and S. Spicher.
   
 * started run on 2021/06/02 at 10:00:03.525     

           -------------------------------------------------
          |                Calculation Setup                |
           -------------------------------------------------

          program call               : /groups/kemi/koerstz/opt/xtb/6.1/bin/xtb reactant.xyz --path --input path.inp --gfn2
          hostname                   : node305
          coordinate file            : reactant.xyz
          omp threads                :                     1
          number of atoms            :                     9
          number of electrons        :                    36
          charge                     :                     0
          spin                       :                   0.0
          first test random number   :      0.47139934267334


########################################################################
# WARNING! Please study the warnings concerning your input carefully
#  - XTBPATH is not set, using XTBHOME instead
########################################################################

           ------------------------------------------------- 
          |                 G F N 2 - x T B                 |
          | Geometry, Frequencies, Noncovalent interactions |
          |            JCTC 2018 parametrisation            |
           ------------------------------------------------- 
             k(s)              :                1.8500
             k(p)              :                2.2300
             k(d)              :                2.2300
             k(f)              :                2.0000
             kEN (H0ij)        :               -2.0000
             D4 a1             :                0.5200
             D4 a2             :                5.0000
             D4 s6             :                1.0000
             D4 s8             :                2.7000
             D4 s9             :                5.0000
             alphaj            :                2.0000

  Z AO/shell   Hii/eV     exponent
  1     Wed Apr 25 08:07:45 CEST 2018   EN: 2.200 GM2: 0.406  GM3: 0.0800  RAES: 1.40
     1s    -10.707211    1.230000
  6     Wed Apr 25 08:07:45 CEST 2018   EN: 2.550 GM2: 0.538  GM3: 0.1500  RAES: 3.00
     2s    -13.970922    2.096432
     2p    -10.063292    1.800000
  7     Wed Apr 25 08:07:45 CEST 2018   EN: 3.040 GM2: 0.461  GM3:-0.0640  RAES: 1.90
     2s    -16.686243    2.339881
     2p    -12.523956    2.014332
  8     Wed Apr 25 08:07:45 CEST 2018   EN: 3.440 GM2: 0.452  GM3:-0.0517  RAES: 1.80
     2s    -20.229985    2.439742
     2p    -15.503117    2.137023


            Z     q(EN)     CN     RAES       Cart. coordinates
     1  N   5.0   -0.46    2.00    1.90    -1.53209     1.11237    -0.56504
     2  C   4.0    0.30    3.03    3.02    -0.39939    -0.91913    -0.10243
     3  N   5.0   -0.04    2.47    1.90    -1.47101    -3.35120    -0.71400
     4  N   5.0   -0.19    1.00    1.90    -3.23201    -4.21136    -1.58897
     5  O   6.0   -0.04    1.48    1.80     1.10304    -5.27962     0.43837
     6  N   5.0   -0.19    2.03    1.90     2.66817    -3.66128     1.25568
     7  C   4.0    0.12    3.04    3.02     2.02943    -1.31817     1.04623
     8  H   1.0    0.33    1.00    1.43    -3.25827     0.97070    -1.39950
     9  H   1.0    0.17    1.00    1.43     3.24945     0.16089     1.69212

           ------------------------------------------------- 
          |        Self-Consistent Charge Iterations        |
           ------------------------------------------------- 

          ...................................................
          :                      SETUP                      :
          :.................................................:
          :  # basis functions                  30          :
          :  # atomic orbitals                  30          :
          :  # shells                           16          :
          :  # electrons                        36          :
          :  max. iterations                   250          :
          :  Hamiltonian                  GFN2-xTB          :
          :  restarted?                      false          :
          :  GBSA solvation                  false          :
          :  PC potential                    false          :
          :  electronic temp.          300.0000000     K    :
          :  accuracy                    1.0000000          :
          :  -> integral cutoff          0.2500000E+02      :
          :  -> integral neglect         0.1000000E-07      :
          :  -> SCF convergence          0.1000000E-05 Eh   :
          :  -> wf. convergence          0.1000000E-03 e    :
          :  Broyden damping             0.4000000          :
          ...................................................

 iter      E             dE          RMSdq      gap      omega  full diag
   1    -20.9654171 -0.209654E+02  0.643E+00    1.83       0.0  T
   2    -21.0785690 -0.113152E+00  0.323E+00    1.09       1.0  T
   3    -21.0933624 -0.147934E-01  0.177E+00    1.07       1.0  T
   4    -21.0980456 -0.468325E-02  0.779E-01    0.83       1.0  T
   5    -21.0996607 -0.161501E-02  0.230E-01    0.81       1.0  T
   6    -21.0998089 -0.148202E-03  0.108E-01    0.78       1.0  T
   7    -21.0998333 -0.244767E-04  0.468E-02    0.80       1.0  T
   8    -21.0998457 -0.123249E-04  0.159E-02    0.79       2.1  T
   9    -21.0998459 -0.209671E-06  0.441E-03    0.79       7.6  T
  10    -21.0998459 -0.688604E-07  0.174E-03    0.79      19.2  T
  11    -21.0998459 -0.917158E-08  0.741E-04    0.79      45.0  T
  12    -21.0998460 -0.286090E-08  0.136E-04    0.79     245.3  T

   *** convergence criteria satisfied after 12 iterations ***

         #    Occupation            Energy/Eh            Energy/eV
      -------------------------------------------------------------
         1        2.0000           -0.7597106             -20.6728
       ...           ...                  ...                  ...
        12        2.0000           -0.5394014             -14.6779
        13        2.0000           -0.5325745             -14.4921
        14        2.0000           -0.5024908             -13.6735
        15        2.0000           -0.4944144             -13.4537
        16        2.0000           -0.4562019             -12.4139
        17        2.0000           -0.4404237             -11.9845
        18        2.0000           -0.3979471             -10.8287 (HOMO)
        19        0.0000           -0.3688153             -10.0360 (LUMO)
        20                         -0.2932213              -7.9790
        21                         -0.2855695              -7.7707
        22                         -0.1993726              -5.4252
        23                         -0.0061498              -0.1673
       ...                                ...                  ...
        30                          0.7385113              20.0959
      -------------------------------------------------------------
                  HL-Gap            0.0291317 Eh            0.7927 eV
             Fermi-level           -0.3833812 Eh          -10.4323 eV

 SCC (total)                   0 d,  0 h,  0 min,  0.007 sec
 SCC setup                      ...        0 min,  0.000 sec (  1.983%)
 Dispersion                     ...        0 min,  0.000 sec (  0.802%)
 integral evaluation            ...        0 min,  0.001 sec ( 15.159%)
 zeroth order Hamiltonian       ...        0 min,  0.000 sec (  1.396%)
 iterations                     ...        0 min,  0.004 sec ( 51.462%)
 molecular gradient             ...        0 min,  0.002 sec ( 26.637%)
 printout                       ...        0 min,  0.000 sec (  2.083%)

         :::::::::::::::::::::::::::::::::::::::::::::::::::::
         ::                     SUMMARY                     ::
         :::::::::::::::::::::::::::::::::::::::::::::::::::::
         :: total energy              -20.867221601088 Eh   ::
         :: gradient norm               0.000177113608 Eh/α ::
         :: HOMO-LUMO gap               0.792715070832 eV   ::
         ::.................................................::
         :: SCC energy                -21.099845950307 Eh   ::
         :: -> isotropic ES             0.027501689308 Eh   ::
         :: -> anisotropic ES           0.003528684961 Eh   ::
         :: -> anisotropic XC           0.029882423110 Eh   ::
         :: -> dispersion              -0.006055347602 Eh   ::
         :: repulsion energy            0.232621236875 Eh   ::
         :: add. restraining            0.000000000000 Eh   ::
         :::::::::::::::::::::::::::::::::::::::::::::::::::::

           -------------------------------------------------
          |                Property Printout                |
           -------------------------------------------------

    * Orbital Energies and Occupations

         #    Occupation            Energy/Eh            Energy/eV
      -------------------------------------------------------------
         1        2.0000           -0.7597106             -20.6728
       ...           ...                  ...                  ...
         6        2.0000           -0.6536102             -17.7856
         7        2.0000           -0.6260282             -17.0351
         8        2.0000           -0.6164454             -16.7743
         9        2.0000           -0.5842407             -15.8980
        10        2.0000           -0.5791228             -15.7587
        11        2.0000           -0.5538473             -15.0710
        12        2.0000           -0.5394014             -14.6779
        13        2.0000           -0.5325745             -14.4921
        14        2.0000           -0.5024908             -13.6735
        15        2.0000           -0.4944144             -13.4537
        16        2.0000           -0.4562019             -12.4139
        17        2.0000           -0.4404237             -11.9845
        18        2.0000           -0.3979471             -10.8287 (HOMO)
        19        0.0000           -0.3688153             -10.0360 (LUMO)
        20                         -0.2932213              -7.9790
        21                         -0.2855695              -7.7707
        22                         -0.1993726              -5.4252
        23                         -0.0061498              -0.1673
        24                          0.0506094               1.3772
        25                          0.0927315               2.5234
        26                          0.2169021               5.9022
        27                          0.3180009               8.6532
        28                          0.4070752              11.0771
        29                          0.5508631              14.9897
        30                          0.7385113              20.0959
      -------------------------------------------------------------
                  HL-Gap            0.0291317 Eh            0.7927 eV
             Fermi-level           -0.3833812 Eh          -10.4323 eV

   #   Z        covCN         q      C6AA      α(0)
   1   7 N      1.778    -0.271    27.860     7.817
   2   6 C      2.829     0.163    24.473     8.106
   3   7 N      2.325     0.217    17.851     6.273
   4   7 N      0.985    -0.134    23.512     6.974
   5   8 O      1.360    -0.271    18.841     5.842
   6   7 N      1.861     0.034    21.320     6.844
   7   6 C      2.858    -0.001    28.055     8.682
   8   1 H      0.860     0.178     1.223     1.732
   9   1 H      0.926     0.084     1.937     2.176

 Mol. C6AA /au·bohr⁶  :       1295.019679
 Mol. C8AA /au·bohr⁸  :      29606.881853
 Mol. α(0) /au        :         54.445506


Wiberg/Mayer (AO) data.
largest (>0.10) Wiberg bond orders for each atom
          total WBO             WBO to atom ...
     1  N   3.107        C    2 1.791    H    8 0.935    N    4 0.120
     2  C   3.953        N    1 1.791    C    7 1.123    N    3 0.921
     3  N   3.783        N    4 2.307    C    2 0.921    O    5 0.380
     4  N   2.828        N    3 2.307    O    5 0.266    N    1 0.120
     5  O   2.272        N    6 1.313    N    3 0.380    N    4 0.266    C    7 0.177
     6  N   3.221        C    7 1.624    O    5 1.313
     7  C   3.968        N    6 1.624    C    2 1.123    H    9 0.959    O    5 0.177
     8  H   0.968        N    1 0.935
     9  H   0.993        C    7 0.959

molecular dipole:
                 x           y           z       tot (Debye)
 q only:       -0.055       0.876       0.010
   full:       -0.214       0.885      -0.067       2.322
molecular quadrupole (traceless):
                xx          xy          yy          xz          yz          zz
 q only:        4.540       0.745      -7.765       0.857       0.093       3.225
  q+dip:        5.152       0.795     -10.103       0.122      -0.059       4.951
   full:        4.534       0.700     -10.974      -1.197      -0.226       6.441


           -------------------------------------------------
          | TOTAL ENERGY              -20.867221601088 Eh   |
          | GRADIENT NORM               0.000177113608 Eh/α |
          | HOMO-LUMO GAP               0.792715070832 eV   |
           -------------------------------------------------
           ------------------------------------------------- 
          |                     P A T H                     |
          |            RMSD-Push/Pull Path Finder           |
           ------------------------------------------------- 
 reading reference structures from product.xyz ...
initial k push/pull              :    0.008   -0.020
Gaussian width (1/Bohr)          :    0.600
# random initial distor incr +/- :    0.005
# optlevel                       :   2
# of runs                        :   3
approx # structures opt on path  : 100
# of 'an'-optimization steps     :   3
 
  k_push/k_pull internally multiplied by Natoms!
  user info on effect of push/pull parameters
  ang. ed-prod G should be small, Govlp large
   width   k_push  k_pull  |Gbias| ang. ed-prod G  Govlp
   1.000   0.008  -0.020    0.000111   215.0    -0.00000
   0.900   0.012  -0.030    0.000384   138.5     0.00000
   0.800   0.018  -0.045    0.001312   124.1     0.00000
   0.700   0.027  -0.068    0.004417   122.7     0.00000
   0.600   0.041  -0.101    0.014562   122.6     0.00001
   0.500   0.061  -0.152    0.046681   122.6     0.00008
   0.400   0.091  -0.228    0.143653   122.6     0.00072
   0.300   0.137  -0.342    0.414443   122.6     0.00602
   0.200   0.205  -0.513    1.062823   122.6     0.03956
input reactant/product RMSD (Bohr)  :    3.069

 
 optimizing inital path with Vbias ...
actual k push/pull :   0.008  -0.020

          ...................................................
          :                      SETUP                      :
          :.................................................:
          :   optimization level         verytight          :
          :   max. optcycles                   200          :
          :   ANC micro-cycles                  20          :
          :   degrees of freedom                21          :
          :.................................................:
          :   RF solver                   davidson          :
          :   input Hessian                  false          :
          :   write xtbopt.log                true          :
          :   linear?                        false          :
          :   energy convergence         0.1000000E-06 Eh   :
          :   grad. convergence          0.2000000E-03 Eh/α :
          :   maximium RF displ.         1.0000000          :
          :   Hlow (freq-cutoff)         0.1000000E-01      :
          :   Hmax (freq-cutoff)         5.0000000          :
          :   S6 in model hess.         20.0000000          :
          ...................................................

generating ANC from model Hessian ...
Using Lindh-Hessian (1995)
 Shifting diagonal of input Hessian by   0.000000000000000E+000
 Lowest  eigenvalues of input Hessian
   -0.000000   -0.000000   -0.000000    0.000000    0.000000    0.000000
    0.010923    0.032810    0.050794    0.061930    0.094127    0.096672
    0.149222    0.159302    0.163960    0.294896    0.359975    0.364799
 Highest eigenvalues
    1.212227    1.535940    1.721641    2.054567    2.306110    2.580874
 

........................................................................
.............................. CYCLE    1 ..............................
........................................................................
   1    -21.1041269 -0.211041E+02  0.844E-02    0.82       0.0  T
   2    -21.1041353 -0.839874E-05  0.790E-02    0.80       1.0  T
   3    -21.1041788 -0.434351E-04  0.221E-02    0.81       1.5  T
   4    -21.1041784  0.408478E-06  0.152E-02    0.81       2.2  T
   5    -21.1041791 -0.781447E-06  0.362E-03    0.81       9.2  T
   6    -21.1041792 -0.532271E-07  0.119E-03    0.81      28.0  T
   7    -21.1041792 -0.282254E-08  0.335E-04    0.81      99.5  T
   8    -21.1041792 -0.338453E-09  0.106E-04    0.81     313.0  T
   9    -21.1041792 -0.114078E-10  0.231E-05    0.81    1442.4  T
  10    -21.1041792 -0.447642E-12  0.107E-05    0.81    3113.6  T
     SCC iter.                  ...        0 min,  0.002 sec
     gradient                   ...        0 min,  0.002 sec
 * total energy  :   -20.7957617 Eh     change       -0.2079576E+02 Eh
   gradient norm :     0.0168401 Eh/α   predicted     0.0000000E+00 (-100.00%)
   displ. norm   :     0.0300390 α      lambda       -0.1521416E-03
   maximum displ.:     0.0275166 α      in ANC's #1, #21, #7, ...

........................................................................
.............................. CYCLE    2 ..............................
........................................................................
   1    -21.1005237 -0.211005E+02  0.802E-02    0.79       0.0  T
   2    -21.1005344 -0.107817E-04  0.558E-02    0.81       1.0  T
   3    -21.1005494 -0.149957E-04  0.259E-02    0.80       1.3  T
   4    -21.1005511 -0.168903E-05  0.121E-02    0.80       2.8  T
   5    -21.1005517 -0.572456E-06  0.421E-03    0.80       7.9  T
   6    -21.1005518 -0.785086E-07  0.122E-03    0.80      27.3  T
   7    -21.1005518 -0.109598E-08  0.330E-04    0.80     101.0  T
   8    -21.1005518 -0.277350E-09  0.148E-04    0.80     225.8  T
   9    -21.1005518 -0.368559E-10  0.330E-05    0.80    1011.6  T
     SCC iter.                  ...        0 min,  0.002 sec
     gradient                   ...        0 min,  0.002 sec
 * total energy  :   -20.7958473 Eh     change       -0.8564435E-04 Eh
   gradient norm :     0.0039993 Eh/α   predicted    -0.7614015E-04 ( -11.10%)
   displ. norm   :     0.0230413 α      lambda       -0.2031105E-04
   maximum displ.:     0.0222923 α      in ANC's #1, #4, #16, ...

........................................................................
.............................. CYCLE    3 ..............................
........................................................................
   1    -21.0999321 -0.210999E+02  0.409E-02    0.79       0.0  T
   2    -21.0999326 -0.588498E-06  0.278E-02    0.80       1.2  T
   3    -21.0999350 -0.235769E-05  0.156E-02    0.79       2.1  T
   4    -21.0999359 -0.895414E-06  0.469E-03    0.80       7.1  T
   5    -21.0999360 -0.125156E-06  0.116E-03    0.80      28.8  T
   6    -21.0999360 -0.109559E-08  0.444E-04    0.80      75.2  T
   7    -21.0999360 -0.203475E-09  0.131E-04    0.80     254.7  T
   8    -21.0999360 -0.126441E-10  0.554E-05    0.80     601.6  T
   9    -21.0999360 -0.160973E-10  0.148E-05    0.80    2247.6  T
  10    -21.0999360 -0.138556E-12  0.698E-06    0.80    4774.2  T
     SCC iter.                  ...        0 min,  0.002 sec
     gradient                   ...        0 min,  0.002 sec
 * total energy  :   -20.7958638 Eh     change       -0.1655545E-04 Eh
   gradient norm :     0.0023896 Eh/α   predicted    -0.1016148E-04 ( -38.62%)
   displ. norm   :     0.0827324 α      lambda       -0.4561045E-04
   maximum displ.:     0.0809839 α      in ANC's #1, #11, #4, ...

........................................................................
.............................. CYCLE    4 ..............................
........................................................................
   1    -21.0988435 -0.210988E+02  0.133E-01    0.79       0.0  T
   2    -21.0988486 -0.513623E-05  0.786E-02    0.80       1.0  T
   3    -21.0988408  0.776240E-05  0.560E-02    0.78       1.0  T
   4    -21.0988618 -0.209114E-04  0.104E-02    0.79       3.2  T
   5    -21.0988623 -0.522543E-06  0.375E-03    0.79       8.9  T
   6    -21.0988623 -0.216984E-07  0.109E-03    0.79      30.5  T
   7    -21.0988623 -0.134353E-08  0.421E-04    0.79      79.1  T
   8    -21.0988623 -0.179519E-09  0.142E-04    0.79     235.0  T
   9    -21.0988623 -0.100403E-09  0.506E-05    0.79     658.4  T
  10    -21.0988623 -0.240163E-11  0.224E-05    0.79    1486.0  T
  11    -21.0988623 -0.175859E-11  0.580E-06    0.79    5750.9  T
     SCC iter.                  ...        0 min,  0.002 sec
     gradient                   ...        0 min,  0.002 sec
 * total energy  :   -20.7959028 Eh     change       -0.3899416E-04 Eh
   gradient norm :     0.0050237 Eh/α   predicted    -0.2296234E-04 ( -41.11%)
   displ. norm   :     0.4632602 α      lambda       -0.2181044E-03
   maximum displ.:     0.4551313 α      in ANC's #1, #11, #4, ...

........................................................................
.............................. CYCLE    5 ..............................
........................................................................
   1    -21.0888254 -0.210888E+02  0.720E-01    0.73       0.0  T
   2    -21.0889689 -0.143495E-03  0.395E-01    0.77       1.0  T
   3    -21.0885254  0.443510E-03  0.267E-01    0.71       1.0  T
   4    -21.0891213 -0.595870E-03  0.433E-02    0.75       1.0  T
   5    -21.0891274 -0.605472E-05  0.215E-02    0.75       1.6  T
   6    -21.0891290 -0.160201E-05  0.609E-03    0.75       5.5  T
   7    -21.0891290 -0.285735E-07  0.252E-03    0.75      13.2  T
   8    -21.0891290 -0.114043E-07  0.109E-03    0.75      30.6  T
   9    -21.0891290 -0.570347E-08  0.276E-04    0.75     120.6  T
  10    -21.0891290 -0.436593E-10  0.803E-05    0.75     415.2  T
  11    -21.0891290 -0.227303E-10  0.318E-05    0.75    1048.3  T
     SCC iter.                  ...        0 min,  0.002 sec
     gradient                   ...        0 min,  0.002 sec
 * total energy  :   -20.7960353 Eh     change       -0.1324835E-03 Eh
   gradient norm :     0.0334817 Eh/α   predicted    -0.1324383E-03 (  -0.03%)
   displ. norm   :     0.1050105 α      lambda       -0.2112352E-03
   maximum displ.:     0.1026974 α      in ANC's #1, #11, #6, ...

........................................................................
.............................. CYCLE    6 ..............................
........................................................................
   1    -21.0887371 -0.210887E+02  0.167E-01    0.75       0.0  T
   2    -21.0887453 -0.818342E-05  0.884E-02    0.74       1.0  T
   3    -21.0887311  0.141919E-04  0.458E-02    0.76       1.0  T
   4    -21.0887496 -0.185786E-04  0.859E-03    0.75       3.9  T
   5    -21.0887498 -0.119779E-06  0.447E-03    0.75       7.5  T
   6    -21.0887499 -0.903436E-07  0.146E-03    0.75      22.8  T
   7    -21.0887499 -0.315185E-08  0.712E-04    0.75      46.8  T
   8    -21.0887499 -0.862286E-09  0.187E-04    0.75     177.9  T
   9    -21.0887499 -0.124512E-09  0.779E-05    0.75     427.7  T
     SCC iter.                  ...        0 min,  0.002 sec
     gradient                   ...        0 min,  0.002 sec
 * total energy  :   -20.7962529 Eh     change       -0.2175480E-03 Eh
   gradient norm :     0.0344010 Eh/α   predicted    -0.1067823E-03 ( -50.92%)
   displ. norm   :     0.1983043 α      lambda       -0.2510684E-03
   maximum displ.:     0.1949412 α      in ANC's #1, #11, #4, ...

........................................................................
.............................. CYCLE    7 ..............................
........................................................................
   1    -21.0842401 -0.210842E+02  0.308E-01    0.73       0.0  T
   2    -21.0842677 -0.276286E-04  0.162E-01    0.73       1.0  T
   3    -21.0842411  0.265954E-04  0.680E-02    0.74       1.0  T
   4    -21.0842788 -0.377206E-04  0.161E-02    0.73       2.1  T
   5    -21.0842795 -0.734715E-06  0.821E-03    0.73       4.1  T
   6    -21.0842798 -0.301686E-06  0.259E-03    0.73      12.9  T
   7    -21.0842799 -0.159478E-07  0.104E-03    0.73      32.0  T
   8    -21.0842799 -0.122572E-08  0.424E-04    0.73      78.6  T
   9    -21.0842799 -0.917826E-09  0.132E-04    0.73     253.0  T
  10    -21.0842799 -0.127365E-10  0.386E-05    0.73     864.7  T
     SCC iter.                  ...        0 min,  0.002 sec
     gradient                   ...        0 min,  0.002 sec
 * total energy  :   -20.7964887 Eh     change       -0.2358517E-03 Eh
   gradient norm :     0.0439151 Eh/α   predicted    -0.1304733E-03 ( -44.68%)
   displ. norm   :     0.5923372 α      lambda       -0.1780715E-02
   maximum displ.:     0.5782033 α      in ANC's #1, #11, #4, ...

........................................................................
.............................. CYCLE    8 ..............................
........................................................................
   1    -21.0686180 -0.210686E+02  0.965E-01    0.70       0.0  T
   2    -21.0687277 -0.109675E-03  0.549E-01    0.64       1.0  T
   3    -21.0676056  0.112212E-02  0.479E-01    0.77       1.0  T
   4    -21.0694146 -0.180896E-02  0.557E-02    0.69       1.0  T
   5    -21.0694218 -0.721647E-05  0.287E-02    0.70       1.2  T
   6    -21.0694242 -0.242210E-05  0.124E-02    0.70       2.7  T
   7    -21.0694248 -0.621981E-06  0.371E-03    0.70       9.0  T
   8    -21.0694248 -0.323249E-08  0.131E-03    0.70      25.5  T
   9    -21.0694248 -0.112834E-07  0.433E-04    0.70      77.0  T
  10    -21.0694248 -0.109814E-10  0.180E-04    0.70     185.0  T
  11    -21.0694248 -0.231797E-09  0.558E-05    0.70     597.6  T
     SCC iter.                  ...        0 min,  0.002 sec
     gradient                   ...        0 min,  0.002 sec
 * total energy  :   -20.7978757 Eh     change       -0.1386954E-02 Eh
   gradient norm :     0.0712570 Eh/α   predicted    -0.1202761E-02 ( -13.28%)
   displ. norm   :     0.3160204 α      lambda       -0.3490179E-02
   maximum displ.:     0.2930357 α      in ANC's #1, #11, #12, ...

........................................................................
.............................. CYCLE    9 ..............................
........................................................................
   1    -21.0706711 -0.210707E+02  0.661E-01    0.75       0.0  T
   2    -21.0701711  0.499946E-03  0.515E-01    0.63       1.0  T
   3    -21.0715573 -0.138619E-02  0.277E-01    0.74       1.0  T
   4    -21.0718905 -0.333128E-03  0.586E-02    0.71       1.0  T
   5    -21.0719087 -0.181965E-04  0.185E-02    0.71       1.8  T
   6    -21.0719092 -0.580609E-06  0.758E-03    0.71       4.4  T
   7    -21.0719093 -0.996804E-07  0.287E-03    0.71      11.6  T
   8    -21.0719094 -0.234617E-07  0.153E-03    0.71      21.8  T
   9    -21.0719094 -0.852257E-08  0.294E-04    0.71     113.2  T
  10    -21.0719094 -0.127127E-09  0.145E-04    0.71     229.5  T
     SCC iter.                  ...        0 min,  0.002 sec
     gradient                   ...        0 min,  0.002 sec
 * total energy  :   -20.8005154 Eh     change       -0.2639697E-02 Eh
   gradient norm :     0.0650379 Eh/α   predicted    -0.1919370E-02 ( -27.29%)
   displ. norm   :     0.2449778 α      lambda       -0.4703071E-02
   maximum displ.:     0.1641513 α      in ANC's #1, #2, #12, ...

........................................................................
.............................. CYCLE   10 ..............................
........................................................................
   1    -21.0904761 -0.210905E+02  0.755E-01    0.91       0.0  T
   2    -21.0900728  0.403324E-03  0.617E-01    0.70       1.0  T
   3    -21.0925587 -0.248588E-02  0.272E-01    0.84       1.0  T
   4    -21.0927661 -0.207397E-03  0.107E-01    0.81       1.0  T
   5    -21.0928317 -0.656198E-04  0.224E-02    0.81       1.5  T
   6    -21.0928325 -0.840971E-06  0.108E-02    0.81       3.1  T
   7    -21.0928326 -0.117903E-06  0.282E-03    0.81      11.8  T
   8    -21.0928327 -0.398922E-07  0.126E-03    0.81      26.5  T
   9    -21.0928327 -0.102332E-08  0.439E-04    0.81      76.0  T
  10    -21.0928327 -0.866301E-09  0.219E-04    0.81     152.2  T
  11    -21.0928327 -0.699174E-10  0.118E-04    0.81     281.4  T
     SCC iter.                  ...        0 min,  0.002 sec
     gradient                   ...        0 min,  0.002 sec
 * total energy  :   -20.8024006 Eh     change       -0.1885228E-02 Eh
   gradient norm :     0.0313352 Eh/α   predicted    -0.2492662E-02 (  32.22%)
   displ. norm   :     0.6421041 α      lambda       -0.3805309E-02
   maximum displ.:     0.6104544 α      in ANC's #1, #11, #4, ...

........................................................................
.............................. CYCLE   11 ..............................
........................................................................
   1    -21.0608268 -0.210608E+02  0.106E+00    0.73       0.0  T
   2    -21.0606714  0.155450E-03  0.645E-01    0.67       1.0  T
   3    -21.0593043  0.136702E-02  0.597E-01    0.84       1.0  T
   4    -21.0620405 -0.273615E-02  0.827E-02    0.73       1.0  T
   5    -21.0620798 -0.393097E-04  0.317E-02    0.75       1.1  T
   6    -21.0620830 -0.322642E-05  0.174E-02    0.75       1.9  T
   7    -21.0620842 -0.113517E-05  0.387E-03    0.75       8.6  T
   8    -21.0620843 -0.817514E-07  0.167E-03    0.75      19.9  T
   9    -21.0620843 -0.629968E-08  0.577E-04    0.75      57.8  T
  10    -21.0620843 -0.231499E-08  0.172E-04    0.75     193.8  T
  11    -21.0620843 -0.105103E-09  0.613E-05    0.75     544.2  T
     SCC iter.                  ...        0 min,  0.002 sec
     gradient                   ...        0 min,  0.002 sec
 * total energy  :   -20.8040475 Eh     change       -0.1646868E-02 Eh
   gradient norm :     0.0620487 Eh/α   predicted    -0.2687112E-02 (  63.17%)
   displ. norm   :     0.1726520 α      lambda       -0.3137751E-02
   maximum displ.:     0.1224580 α      in ANC's #2, #6, #8, ...

........................................................................
.............................. CYCLE   12 ..............................
........................................................................
   1    -21.0763399 -0.210763E+02  0.480E-01    0.74       0.0  T
   2    -21.0764487 -0.108801E-03  0.312E-01    0.79       1.0  T
   3    -21.0765740 -0.125266E-03  0.204E-01    0.73       1.0  T
   4    -21.0767265 -0.152534E-03  0.832E-02    0.76       1.0  T
   5    -21.0767858 -0.592655E-04  0.147E-02    0.74       2.3  T
   6    -21.0767862 -0.390455E-06  0.693E-03    0.74       4.8  T
   7    -21.0767862 -0.249942E-07  0.201E-03    0.74      16.6  T
   8    -21.0767862 -0.204414E-07  0.906E-04    0.74      36.8  T
   9    -21.0767862 -0.995009E-09  0.198E-04    0.74     168.0  T
  10    -21.0767862 -0.146780E-09  0.934E-05    0.74     356.8  T
     SCC iter.                  ...        0 min,  0.002 sec
     gradient                   ...        0 min,  0.002 sec
 * total energy  :   -20.8044341 Eh     change       -0.3866551E-03 Eh
   gradient norm :     0.0735895 Eh/α   predicted    -0.1615640E-02 ( 317.85%)
   displ. norm   :     0.1732723 α      lambda       -0.4677180E-02
   maximum displ.:     0.1041943 α      in ANC's #4, #1, #6, ...

........................................................................
.............................. CYCLE   13 ..............................
........................................................................
   1    -21.0821361 -0.210821E+02  0.614E-01    0.89       0.0  T
   2    -21.0816148  0.521368E-03  0.541E-01    0.69       1.0  T
   3    -21.0835757 -0.196097E-02  0.235E-01    0.82       1.0  T
   4    -21.0837462 -0.170507E-03  0.666E-02    0.79       1.0  T
   5    -21.0837649 -0.187031E-04  0.237E-02    0.79       1.4  T
   6    -21.0837677 -0.278990E-05  0.840E-03    0.79       4.0  T
   7    -21.0837678 -0.550979E-07  0.245E-03    0.80      13.6  T
   8    -21.0837678 -0.218734E-07  0.100E-03    0.79      33.2  T
   9    -21.0837678 -0.832642E-09  0.401E-04    0.79      83.1  T
  10    -21.0837678 -0.837115E-09  0.119E-04    0.79     280.0  T
  11    -21.0837678 -0.320028E-10  0.604E-05    0.79     552.3  T
     SCC iter.                  ...        0 min,  0.002 sec
     gradient                   ...        0 min,  0.002 sec
 * total energy  :   -20.8063919 Eh     change       -0.1957744E-02 Eh
   gradient norm :     0.0388906 Eh/α   predicted    -0.2408804E-02 (  23.04%)
   displ. norm   :     0.3199807 α      lambda       -0.3421571E-02
   maximum displ.:     0.2336084 α      in ANC's #1, #12, #4, ...

........................................................................
.............................. CYCLE   14 ..............................
........................................................................
   1    -21.0692316 -0.210692E+02  0.710E-01    0.74       0.0  T
   2    -21.0686728  0.558872E-03  0.559E-01    0.88       1.0  T
   3    -21.0700957 -0.142297E-02  0.303E-01    0.76       1.0  T
   4    -21.0704930 -0.397235E-03  0.648E-02    0.81       1.0  T
   5    -21.0705231 -0.301168E-04  0.197E-02    0.81       1.7  T
   6    -21.0705241 -0.100059E-05  0.887E-03    0.81       3.8  T
   7    -21.0705242 -0.128042E-06  0.248E-03    0.81      13.4  T
   8    -21.0705242 -0.524678E-08  0.116E-03    0.81      28.7  T
   9    -21.0705242 -0.426445E-08  0.427E-04    0.81      78.1  T
  10    -21.0705242 -0.210463E-09  0.186E-04    0.81     178.9  T
  11    -21.0705242 -0.944631E-10  0.530E-05    0.81     628.7  T
     SCC iter.                  ...        0 min,  0.002 sec
     gradient                   ...        0 min,  0.002 sec
 * total energy  :   -20.8081498 Eh     change       -0.1757917E-02 Eh
   gradient norm :     0.0312397 Eh/α   predicted    -0.1885953E-02 (   7.28%)
   displ. norm   :     0.4421811 α      lambda       -0.2490214E-02
   maximum displ.:     0.3880354 α      in ANC's #1, #8, #12, ...

........................................................................
.............................. CYCLE   15 ..............................
........................................................................
   1    -21.0509572 -0.210510E+02  0.906E-01    0.80       0.0  T
   2    -21.0492603  0.169688E-02  0.729E-01    0.64       1.0  T
   3    -21.0517678 -0.250746E-02  0.461E-01    0.83       1.0  T
   4    -21.0529004 -0.113260E-02  0.883E-02    0.75       1.0  T
   5    -21.0529546 -0.542243E-04  0.351E-02    0.76       1.0  T
   6    -21.0529599 -0.526412E-05  0.138E-02    0.76       2.4  T
   7    -21.0529599 -0.455205E-07  0.464E-03    0.76       7.2  T
   8    -21.0529600 -0.995230E-07  0.221E-03    0.76      15.1  T
   9    -21.0529600 -0.113884E-07  0.423E-04    0.76      78.8  T
  10    -21.0529600 -0.389235E-09  0.213E-04    0.76     156.7  T
  11    -21.0529600 -0.710898E-10  0.764E-05    0.76     436.2  T
     SCC iter.                  ...        0 min,  0.002 sec
     gradient                   ...        0 min,  0.002 sec
 * total energy  :   -20.8093746 Eh     change       -0.1224801E-02 Eh
   gradient norm :     0.0563300 Eh/α   predicted    -0.1488568E-02 (  21.54%)
   displ. norm   :     0.1774391 α      lambda       -0.3012006E-02
   maximum displ.:     0.0938135 α      in ANC's #8, #12, #5, ...

........................................................................
.............................. CYCLE   16 ..............................
........................................................................
   1    -21.0665651 -0.210666E+02  0.449E-01    0.89       0.0  T
   2    -21.0666454 -0.803458E-04  0.285E-01    0.79       1.0  T
   3    -21.0668081 -0.162735E-03  0.205E-01    0.86       1.0  T
   4    -21.0670016 -0.193488E-03  0.833E-02    0.82       1.0  T
   5    -21.0670423 -0.406606E-04  0.169E-02    0.83       2.0  T
   6    -21.0670438 -0.150548E-05  0.837E-03    0.83       4.0  T
   7    -21.0670439 -0.136913E-06  0.188E-03    0.83      17.7  T
   8    -21.0670439 -0.113956E-07  0.880E-04    0.83      37.9  T
   9    -21.0670439 -0.113974E-08  0.390E-04    0.83      85.5  T
  10    -21.0670439 -0.544443E-09  0.138E-04    0.83     241.3  T
  11    -21.0670439 -0.187690E-10  0.377E-05    0.83     883.6  T
     SCC iter.                  ...        0 min,  0.002 sec
     gradient                   ...        0 min,  0.002 sec
 * total energy  :   -20.8108570 Eh     change       -0.1482392E-02 Eh
   gradient norm :     0.0376621 Eh/α   predicted    -0.1553417E-02 (   4.79%)
   displ. norm   :     0.3696767 α      lambda       -0.2578803E-02
   maximum displ.:     0.2656879 α      in ANC's #1, #12, #8, ...

........................................................................
.............................. CYCLE   17 ..............................
........................................................................
   1    -21.0597006 -0.210597E+02  0.776E-01    0.91       0.0  T
   2    -21.0593360  0.364564E-03  0.511E-01    0.78       1.0  T
   3    -21.0589199  0.416131E-03  0.443E-01    0.94       1.0  T
   4    -21.0603905 -0.147063E-02  0.508E-02    0.87       1.0  T
   5    -21.0604061 -0.155965E-04  0.213E-02    0.86       1.6  T
   6    -21.0604065 -0.373282E-06  0.988E-03    0.86       3.4  T
   7    -21.0604069 -0.425313E-06  0.318E-03    0.86      10.5  T
   8    -21.0604070 -0.260194E-07  0.146E-03    0.86      22.8  T
   9    -21.0604070 -0.481596E-08  0.800E-04    0.86      41.7  T
  10    -21.0604070 -0.252848E-08  0.195E-04    0.86     171.1  T
  11    -21.0604070 -0.583924E-10  0.642E-05    0.86     519.1  T
     SCC iter.                  ...        0 min,  0.002 sec
     gradient                   ...        0 min,  0.002 sec
 * total energy  :   -20.8124384 Eh     change       -0.1581454E-02 Eh
   gradient norm :     0.0276986 Eh/α   predicted    -0.1465614E-02 (  -7.32%)
   displ. norm   :     0.4474441 α      lambda       -0.2530972E-02
   maximum displ.:     0.3088954 α      in ANC's #1, #12, #8, ...

........................................................................
.............................. CYCLE   18 ..............................
........................................................................
   1    -21.0492052 -0.210492E+02  0.104E+00    0.99       0.0  T
   2    -21.0454888  0.371645E-02  0.943E-01    0.71       1.0  T
   3    -21.0511212 -0.563247E-02  0.501E-01    0.95       1.0  T
   4    -21.0523094 -0.118818E-02  0.591E-02    0.89       1.0  T
   5    -21.0523257 -0.162835E-04  0.320E-02    0.89       1.0  T
   6    -21.0523285 -0.277274E-05  0.140E-02    0.89       2.4  T
   7    -21.0523291 -0.668937E-06  0.385E-03    0.89       8.7  T
   8    -21.0523292 -0.410940E-07  0.167E-03    0.89      19.9  T
   9    -21.0523292 -0.156516E-08  0.673E-04    0.89      49.5  T
  10    -21.0523292 -0.266162E-08  0.172E-04    0.89     194.2  T
  11    -21.0523292 -0.599449E-10  0.561E-05    0.89     593.9  T
     SCC iter.                  ...        0 min,  0.002 sec
     gradient                   ...        0 min,  0.002 sec
 * total energy  :   -20.8132919 Eh     change       -0.8534604E-03 Eh
   gradient norm :     0.0382130 Eh/α   predicted    -0.1518837E-02 (  77.96%)
   displ. norm   :     0.2403593 α      lambda       -0.1960667E-02
   maximum displ.:     0.1650129 α      in ANC's #1, #12, #8, ...

........................................................................
.............................. CYCLE   19 ..............................
........................................................................
   1    -21.0442226 -0.210442E+02  0.438E-01    0.87       0.0  T
   2    -21.0442329 -0.103172E-04  0.247E-01    0.86       1.0  T
   3    -21.0437247  0.508234E-03  0.255E-01    0.92       1.0  T
   4    -21.0443186 -0.593928E-03  0.274E-02    0.87       1.2  T
   5    -21.0443227 -0.403348E-05  0.154E-02    0.88       2.2  T
   6    -21.0443236 -0.973085E-06  0.818E-03    0.88       4.1  T
   7    -21.0443238 -0.178619E-06  0.174E-03    0.88      19.1  T
   8    -21.0443238 -0.115484E-07  0.906E-04    0.88      36.8  T
   9    -21.0443238 -0.977995E-09  0.417E-04    0.88      79.9  T
  10    -21.0443238 -0.602054E-09  0.156E-04    0.88     214.2  T
  11    -21.0443238 -0.452189E-10  0.568E-05    0.88     586.9  T
     SCC iter.                  ...        0 min,  0.002 sec
     gradient                   ...        0 min,  0.002 sec
 * total energy  :   -20.8144332 Eh     change       -0.1141292E-02 Eh
   gradient norm :     0.0308968 Eh/α   predicted    -0.1036972E-02 (  -9.14%)
   displ. norm   :     0.1746367 α      lambda       -0.2823878E-02
   maximum displ.:     0.1063462 α      in ANC's #12, #2, #1, ...

........................................................................
.............................. CYCLE   20 ..............................
........................................................................
   1    -21.0676726 -0.210677E+02  0.489E-01    1.03       0.0  T
   2    -21.0677313 -0.587274E-04  0.301E-01    0.95       1.0  T
   3    -21.0676582  0.731877E-04  0.242E-01    1.03       1.0  T
   4    -21.0680081 -0.349938E-03  0.818E-02    0.97       1.0  T
   5    -21.0680550 -0.468552E-04  0.191E-02    0.98       1.7  T
   6    -21.0680569 -0.195928E-05  0.960E-03    0.97       3.5  T
   7    -21.0680570 -0.129402E-06  0.332E-03    0.98      10.1  T
   8    -21.0680571 -0.530078E-07  0.131E-03    0.98      25.4  T
   9    -21.0680571 -0.388281E-08  0.659E-04    0.98      50.6  T
  10    -21.0680571 -0.357897E-09  0.132E-04    0.98     252.3  T
  11    -21.0680571 -0.261444E-10  0.325E-05    0.98    1026.5  T
     SCC iter.                  ...        0 min,  0.002 sec
     gradient                   ...        0 min,  0.002 sec
 * total energy  :   -20.8147280 Eh     change       -0.2948034E-03 Eh
   gradient norm :     0.0503319 Eh/α   predicted    -0.1455000E-02 ( 393.55%)
   displ. norm   :     0.4297588 α      lambda       -0.3010074E-02
   maximum displ.:     0.3167508 α      in ANC's #1, #12, #8, ...
 * RMSD in coord.:     1.6109815 α      energy gain  -0.2081473E+02 Eh

generating ANC from model Hessian ...
Using Lindh-Hessian (1995)
 Shifting diagonal of input Hessian by   0.000000000000000E+000
 Lowest  eigenvalues of input Hessian
   -0.000000   -0.000000   -0.000000    0.000000    0.000000    0.000000
    0.013750    0.023078    0.032347    0.051110    0.072732    0.099551
    0.123200    0.132586    0.184323    0.242149    0.312836    0.333284
 Highest eigenvalues
    1.240093    1.400695    1.571952    1.943586    2.155374    2.607914
 

........................................................................
.............................. CYCLE   21 ..............................
........................................................................
   1    -21.0444297 -0.210444E+02  0.923E-01    0.89       0.0  T
   2    -21.0436531  0.776554E-03  0.622E-01    0.82       1.0  T
   3    -21.0427350  0.918119E-03  0.595E-01    1.01       1.0  T
   4    -21.0454805 -0.274549E-02  0.971E-02    0.89       1.0  T
   5    -21.0455508 -0.702650E-04  0.422E-02    0.91       1.0  T
   6    -21.0455623 -0.115190E-04  0.168E-02    0.91       2.0  T
   7    -21.0455626 -0.271768E-06  0.525E-03    0.91       6.3  T
   8    -21.0455628 -0.190729E-06  0.175E-03    0.91      19.0  T
   9    -21.0455628 -0.248518E-08  0.809E-04    0.91      41.2  T
  10    -21.0455628 -0.266165E-08  0.245E-04    0.91     136.1  T
  11    -21.0455628 -0.183437E-09  0.146E-04    0.91     228.6  T
  12    -21.0455628 -0.143331E-09  0.408E-05    0.91     817.6  T
  13    -21.0455628 -0.112621E-10  0.114E-05    0.91    2927.6  T
     SCC iter.                  ...        0 min,  0.003 sec
     gradient                   ...        0 min,  0.002 sec
 * total energy  :   -20.8162619 Eh     change       -0.1533887E-02 Eh
   gradient norm :     0.0525173 Eh/α   predicted     0.0000000E+00 (-100.00%)
   displ. norm   :     0.1912713 α      lambda       -0.3051444E-02
   maximum displ.:     0.1156966 α      in ANC's #1, #2, #3, ...

........................................................................
.............................. CYCLE   22 ..............................
........................................................................
   1    -21.0493961 -0.210494E+02  0.533E-01    0.86       0.0  T
   2    -21.0488844  0.511725E-03  0.375E-01    0.78       1.0  T
   3    -21.0487227  0.161631E-03  0.355E-01    0.91       1.0  T
   4    -21.0497868 -0.106404E-02  0.784E-02    0.84       1.0  T
   5    -21.0498325 -0.456720E-04  0.169E-02    0.84       2.0  T
   6    -21.0498337 -0.123533E-05  0.845E-03    0.84       3.9  T
   7    -21.0498338 -0.139914E-06  0.358E-03    0.84       9.3  T
   8    -21.0498339 -0.655510E-07  0.871E-04    0.84      38.2  T
   9    -21.0498339 -0.178453E-10  0.439E-04    0.84      75.9  T
  10    -21.0498339 -0.117063E-08  0.138E-04    0.84     240.8  T
  11    -21.0498339 -0.207265E-10  0.429E-05    0.84     777.9  T
     SCC iter.                  ...        0 min,  0.002 sec
     gradient                   ...        0 min,  0.002 sec
 * total energy  :   -20.8184096 Eh     change       -0.2147680E-02 Eh
   gradient norm :     0.0221988 Eh/α   predicted    -0.1581543E-02 ( -26.36%)
   displ. norm   :     0.3057252 α      lambda       -0.2588275E-02
   maximum displ.:     0.2064552 α      in ANC's #1, #3, #5, ...

........................................................................
.............................. CYCLE   23 ..............................
........................................................................
   1    -21.0460496 -0.210460E+02  0.733E-01    0.66       0.0  T
   2    -21.0464260 -0.376441E-03  0.390E-01    0.71       1.0  T
   3    -21.0463386  0.874703E-04  0.225E-01    0.71       1.0  T
   4    -21.0463777 -0.391606E-04  0.124E-01    0.69       1.0  T
   5    -21.0465356 -0.157837E-03  0.683E-02    0.72       1.0  T
   6    -21.0465813 -0.457156E-04  0.163E-02    0.71       2.0  T
   7    -21.0465820 -0.682254E-06  0.388E-03    0.71       8.6  T
   8    -21.0465820 -0.607888E-07  0.129E-03    0.71      25.9  T
   9    -21.0465820 -0.188740E-08  0.579E-04    0.71      57.6  T
  10    -21.0465820 -0.114576E-08  0.249E-04    0.71     133.8  T
  11    -21.0465820 -0.213181E-09  0.942E-05    0.71     353.9  T
     SCC iter.                  ...        0 min,  0.002 sec
     gradient                   ...        0 min,  0.002 sec
 * total energy  :   -20.8206704 Eh     change       -0.2260866E-02 Eh
   gradient norm :     0.0206948 Eh/α   predicted    -0.1415099E-02 ( -37.41%)
   displ. norm   :     0.7464137 α      lambda       -0.6138369E-02
   maximum displ.:     0.4352161 α      in ANC's #1, #3, #5, ...

........................................................................
.............................. CYCLE   24 ..............................
........................................................................
   1    -21.0136858 -0.210137E+02  0.199E+00    0.28       0.0  T
   2    -20.9841926  0.294932E-01  0.208E+00    1.11       1.0  T
   3    -21.0151501 -0.309575E-01  0.120E+00    0.33       1.0  T
   4    -21.0243200 -0.916990E-02  0.767E-01    0.55       1.0  T
   5    -21.0291412 -0.482114E-02  0.154E-01    0.43       1.0  T
   6    -21.0292699 -0.128724E-03  0.782E-02    0.45       1.0  T
   7    -21.0292894 -0.194893E-04  0.419E-02    0.45       1.0  T
   8    -21.0292972 -0.779487E-05  0.186E-02    0.45       1.8  T
   9    -21.0292999 -0.274748E-05  0.893E-03    0.44       3.7  T
  10    -21.0293009 -0.958200E-06  0.173E-03    0.44      19.3  T
  11    -21.0293008  0.336739E-07  0.193E-03    0.44      17.3  T
  12    -21.0293009 -0.438516E-07  0.233E-04    0.44     143.3  T
  13    -21.0293009  0.163534E-08  0.380E-04    0.44      87.7  T
  14    -21.0293009 -0.167337E-08  0.988E-05    0.44     337.3  T
     SCC iter.                  ...        0 min,  0.003 sec
     gradient                   ...        0 min,  0.002 sec
 * total energy  :   -20.8265407 Eh     change       -0.5870229E-02 Eh
   gradient norm :     0.0577684 Eh/α   predicted    -0.4779179E-02 ( -18.59%)
   displ. norm   :     0.8407805 α      lambda       -0.9034499E-02
   maximum displ.:     0.5003929 α      in ANC's #3, #5, #1, ...

........................................................................
.............................. CYCLE   25 ..............................
........................................................................
   1    -20.9998181 -0.209998E+02  0.191E+00    0.18       0.0  T
   2    -20.9660703  0.337478E-01  0.209E+00    0.95       1.0  T
   3    -20.9720092 -0.593894E-02  0.176E+00    0.14       1.0  T
   4    -20.9960035 -0.239942E-01  0.123E+00    0.62       1.0  T
   5    -21.0074334 -0.114299E-01  0.712E-01    0.44       1.0  T
   6    -21.0104478 -0.301445E-02  0.480E-01    0.38       1.0  T
   7    -21.0119773 -0.152950E-02  0.329E-01    0.33       1.0  T
   8    -21.0129228 -0.945491E-03  0.747E-02    0.28       1.0  T
   9    -21.0129811 -0.582903E-04  0.165E-02    0.27       2.0  T
  10    -21.0129815 -0.369907E-06  0.835E-03    0.27       4.0  T
  11    -21.0129797  0.177829E-05  0.129E-02    0.26       2.6  T
  12    -21.0129808 -0.105986E-05  0.936E-03    0.27       3.6  T
  13    -21.0129819 -0.111371E-05  0.853E-04    0.27      39.1  T
  14    -21.0129819 -0.212255E-08  0.404E-04    0.27      82.6  T
  15    -21.0129819 -0.182886E-08  0.308E-05    0.27    1082.7  T
  16    -21.0129819  0.147509E-10  0.451E-05    0.27     739.4  T
     SCC iter.                  ...        0 min,  0.003 sec
     gradient                   ...        0 min,  0.002 sec
 * total energy  :   -20.8329969 Eh     change       -0.6456235E-02 Eh
   gradient norm :     0.1015180 Eh/α   predicted    -0.7710536E-02 (  19.43%)
   displ. norm   :     0.4679659 α      lambda       -0.1022290E-01
   maximum displ.:     0.2701316 α      in ANC's #5, #2, #3, ...

........................................................................
.............................. CYCLE   26 ..............................
........................................................................
   1    -21.0200729 -0.210201E+02  0.130E+00    0.45       0.0  T
   2    -20.2330603  0.787013E+00  0.755E+00    0.30       1.0  T
   3    -21.0277372 -0.794677E+00  0.744E-01    0.37       1.0  T
   4    -21.0296337 -0.189655E-02  0.540E-01    0.31       1.0  T
   5    -21.0298562 -0.222481E-03  0.410E-01    0.32       1.0  T
   6    -21.0310954 -0.123913E-02  0.281E-01    0.28       1.0  T
   7    -21.0312606 -0.165222E-03  0.230E-01    0.27       1.0  T
   8    -21.0316477 -0.387093E-03  0.140E-01    0.24       1.0  T
   9    -21.0317771 -0.129481E-03  0.799E-02    0.23       1.0  T
  10    -21.0318433 -0.661875E-04  0.846E-03    0.21       3.9  T
  11    -21.0318434 -0.113596E-06  0.709E-03    0.21       4.7  T
  12    -21.0318437 -0.282073E-06  0.397E-03    0.21       8.4  T
  13    -21.0318439 -0.156018E-06  0.607E-04    0.21      54.9  T
  14    -21.0318439  0.793755E-08  0.103E-03    0.21      32.5  T
  15    -21.0318439 -0.104152E-07  0.183E-04    0.21     181.9  T
  16    -21.0318439 -0.349054E-09  0.137E-05    0.21    2429.3  T
     SCC iter.                  ...        0 min,  0.003 sec
     gradient                   ...        0 min,  0.002 sec
 * total energy  :   -20.8391103 Eh     change       -0.6113450E-02 Eh
   gradient norm :     0.1382361 Eh/α   predicted    -0.6230816E-02 (   1.92%)
   displ. norm   :     0.5618706 α      lambda       -0.1805806E-01
   maximum displ.:     0.3698686 α      in ANC's #1, #5, #8, ...

........................................................................
.............................. CYCLE   27 ..............................
........................................................................
   1    -20.6640613 -0.206641E+02  0.497E+00    0.02       0.0  T
   2    -20.6619575  0.210380E-02  0.605E+00    1.33       1.0  T
   3    -20.8862028 -0.224245E+00  0.331E+00    1.98       1.0  T
   4    -20.9524300 -0.662272E-01  0.221E+00    0.93       1.0  T
   5    -20.9585343 -0.610426E-02  0.220E+00    0.19       1.0  T
   6    -21.0112036 -0.526694E-01  0.627E-01    0.34       1.0  T
   7    -21.0049529  0.625073E-02  0.781E-01    0.38       1.0  T
   8    -21.0072501 -0.229718E-02  0.643E-01    0.18       1.0  T
   9    -20.9934685  0.137816E-01  0.118E+00    0.14       1.0  T
  10    -21.0105323 -0.170638E-01  0.305E-01    0.29       1.0  T
  11    -21.0115678 -0.103557E-02  0.819E-02    0.24       1.0  T
  12    -21.0113030  0.264895E-03  0.164E-01    0.22       1.0  T
  13    -21.0116004 -0.297412E-03  0.420E-02    0.22       1.0  T
  14    -21.0116172 -0.167953E-04  0.133E-02    0.23       2.5  T
  15    -21.0116192 -0.203011E-05  0.567E-03    0.22       5.9  T
  16    -21.0116193 -0.724304E-07  0.372E-03    0.23       9.0  T
  17    -21.0116194 -0.152541E-06  0.492E-04    0.22      67.7  T
  18    -21.0116194  0.113991E-08  0.408E-04    0.22      81.6  T
  19    -21.0116194 -0.176182E-08  0.131E-04    0.22     254.5  T
  20    -21.0116194 -0.149921E-09  0.717E-05    0.22     465.0  T
     SCC iter.                  ...        0 min,  0.004 sec
     gradient                   ...        0 min,  0.002 sec
 * total energy  :   -20.8472398 Eh     change       -0.8129450E-02 Eh
   gradient norm :     0.1266301 Eh/α   predicted    -0.1187948E-01 (  46.13%)
   displ. norm   :     0.6176023 α      lambda       -0.3951198E-01
   maximum displ.:     0.2990347 α      in ANC's #2, #4, #10, ...

........................................................................
.............................. CYCLE   28 ..............................
........................................................................
   1    -20.8360144 -0.208360E+02  0.491E+00    0.17       0.0  T
   2    -20.7946757  0.413386E-01  0.555E+00    2.16       1.0  T
   3    -20.9948782 -0.200202E+00  0.284E+00    1.38       1.0  T
   4    -21.0783563 -0.834781E-01  0.117E+00    0.54       1.0  T
   5    -21.0711653  0.719096E-02  0.109E+00    0.53       1.0  T
   6    -21.0028037  0.683616E-01  0.239E+00    0.11       1.0  T
   7    -21.0812410 -0.784373E-01  0.267E-01    0.31       1.0  T
   8    -21.0815175 -0.276521E-03  0.104E-01    0.27       1.0  T
   9    -21.0813704  0.147102E-03  0.131E-01    0.27       1.0  T
  10    -21.0815653 -0.194868E-03  0.472E-02    0.26       1.0  T
  11    -21.0815726 -0.730917E-05  0.319E-02    0.25       1.0  T
  12    -21.0815818 -0.924115E-05  0.136E-02    0.25       2.5  T
  13    -21.0815841 -0.226305E-05  0.382E-03    0.25       8.7  T
  14    -21.0815838  0.262149E-06  0.602E-03    0.25       5.5  T
  15    -21.0815842 -0.382365E-06  0.723E-04    0.25      46.1  T
  16    -21.0815842 -0.433698E-08  0.226E-04    0.25     147.4  T
  17    -21.0815842 -0.466020E-09  0.162E-05    0.25    2055.4  T
     SCC iter.                  ...        0 min,  0.004 sec
     gradient                   ...        0 min,  0.002 sec
 * total energy  :   -20.8608083 Eh     change       -0.1356852E-01 Eh
   gradient norm :     0.2186223 Eh/α   predicted    -0.2729161E-01 ( 101.14%)
   displ. norm   :     0.5845466 α      lambda       -0.5700445E-01
   maximum displ.:     0.2623935 α      in ANC's #4, #2, #5, ...

........................................................................
.............................. CYCLE   29 ..............................
........................................................................
   1    -20.9269369 -0.209269E+02  0.404E+00    0.27       0.0  T
   2    -20.7920971  0.134840E+00  0.511E+00    1.79       1.0  T
   3    -21.0339704 -0.241873E+00  0.180E+00    0.76       1.0  T
   4    -21.0539111 -0.199407E-01  0.834E-01    0.48       1.0  T
   5    -21.0554088 -0.149775E-02  0.504E-01    0.43       1.0  T
   6    -21.0545703  0.838559E-03  0.366E-01    0.35       1.0  T
   7    -21.0547957 -0.225387E-03  0.306E-01    0.41       1.0  T
   8    -21.0559257 -0.112998E-02  0.933E-02    0.37       1.0  T
   9    -21.0559876 -0.619538E-04  0.662E-02    0.39       1.0  T
  10    -21.0560368 -0.491602E-04  0.199E-02    0.38       1.7  T
  11    -21.0560405 -0.368904E-05  0.516E-03    0.38       6.5  T
  12    -21.0560406 -0.101309E-06  0.399E-03    0.38       8.3  T
  13    -21.0560408 -0.193237E-06  0.663E-04    0.38      50.3  T
  14    -21.0560408 -0.274909E-08  0.395E-04    0.38      84.3  T
  15    -21.0560408 -0.177055E-08  0.238E-05    0.38    1403.5  T
  16    -21.0560408  0.827782E-11  0.282E-05    0.38    1184.0  T
     SCC iter.                  ...        0 min,  0.003 sec
     gradient                   ...        0 min,  0.002 sec
 * total energy  :   -20.8918014 Eh     change       -0.3099311E-01 Eh
   gradient norm :     0.0971614 Eh/α   predicted    -0.3824131E-01 (  23.39%)
   displ. norm   :     0.6410174 α      lambda       -0.3609550E-01
   maximum displ.:     0.4184856 α      in ANC's #3, #5, #10, ...

........................................................................
.............................. CYCLE   30 ..............................
........................................................................
   1    -21.0506737 -0.210507E+02  0.169E+00    0.57       0.0  T
   2    -21.0040908  0.465830E-01  0.214E+00    0.41       1.0  T
   3    -21.0225404 -0.184496E-01  0.175E+00    0.80       1.0  T
   4    -21.0552436 -0.327032E-01  0.475E-01    0.56       1.0  T
   5    -21.0566394 -0.139575E-02  0.199E-01    0.56       1.0  T
   6    -21.0568812 -0.241869E-03  0.688E-02    0.55       1.0  T
   7    -21.0568774  0.382674E-05  0.461E-02    0.54       1.0  T
   8    -21.0569023 -0.249018E-04  0.825E-03    0.54       4.0  T
   9    -21.0569024 -0.899658E-07  0.485E-03    0.54       6.9  T
  10    -21.0569025 -0.593981E-07  0.120E-03    0.54      27.9  T
  11    -21.0569025 -0.246182E-08  0.750E-04    0.54      44.5  T
  12    -21.0569025 -0.265562E-08  0.218E-04    0.54     152.6  T
  13    -21.0569025 -0.334445E-09  0.794E-05    0.54     419.6  T
     SCC iter.                  ...        0 min,  0.003 sec
     gradient                   ...        0 min,  0.002 sec
 * total energy  :   -20.9171057 Eh     change       -0.2530432E-01 Eh
   gradient norm :     0.1375539 Eh/α   predicted    -0.2546361E-01 (   0.63%)
   displ. norm   :     0.5427988 α      lambda       -0.2955812E-01
   maximum displ.:     0.2989265 α      in ANC's #2, #4, #5, ...

........................................................................
.............................. CYCLE   31 ..............................
........................................................................
   1    -21.0543219 -0.210543E+02  0.163E+00    0.76       0.0  T
   2    -21.0497067  0.461517E-02  0.104E+00    0.85       1.0  T
   3    -20.9832674  0.664394E-01  0.243E+00    0.61       1.0  T
   4    -21.0560558 -0.727884E-01  0.378E-01    0.79       1.0  T
   5    -21.0566593 -0.603492E-03  0.113E-01    0.79       1.0  T
   6    -21.0567667 -0.107373E-03  0.514E-02    0.78       1.0  T
   7    -21.0567739 -0.718979E-05  0.252E-02    0.78       1.3  T
   8    -21.0567776 -0.367581E-05  0.808E-03    0.78       4.1  T
   9    -21.0567778 -0.275377E-06  0.398E-03    0.78       8.4  T
  10    -21.0567779 -0.675021E-07  0.172E-03    0.78      19.4  T
  11    -21.0567779 -0.515253E-08  0.470E-04    0.78      71.0  T
  12    -21.0567779 -0.312415E-09  0.725E-05    0.78     459.7  T
  13    -21.0567779 -0.356337E-11  0.497E-05    0.78     670.2  T
     SCC iter.                  ...        0 min,  0.003 sec
     gradient                   ...        0 min,  0.002 sec
 * total energy  :   -20.9387389 Eh     change       -0.2163316E-01 Eh
   gradient norm :     0.1287672 Eh/α   predicted    -0.1913340E-01 ( -11.56%)
   displ. norm   :     0.6380465 α      lambda       -0.3484899E-01
   maximum displ.:     0.3980339 α      in ANC's #2, #3, #11, ...

........................................................................
.............................. CYCLE   32 ..............................
........................................................................
   1    -20.9592529 -0.209593E+02  0.297E+00    0.66       0.0  T
   2    -20.7877648  0.171488E+00  0.472E+00    1.75       1.0  T
   3    -21.0383465 -0.250582E+00  0.111E+00    0.93       1.0  T
   4    -21.0461569 -0.781038E-02  0.550E-01    0.81       1.0  T
   5    -21.0471799 -0.102304E-02  0.206E-01    0.82       1.0  T
   6    -21.0475571 -0.377227E-03  0.632E-02    0.83       1.0  T
   7    -21.0475722 -0.150834E-04  0.313E-02    0.83       1.1  T
   8    -21.0475744 -0.219492E-05  0.178E-02    0.83       1.9  T
   9    -21.0475758 -0.141029E-05  0.876E-03    0.83       3.8  T
  10    -21.0475764 -0.623903E-06  0.426E-03    0.83       7.8  T
  11    -21.0475766 -0.162916E-06  0.127E-03    0.83      26.2  T
  12    -21.0475766 -0.127845E-07  0.439E-04    0.83      75.9  T
  13    -21.0475766  0.115110E-08  0.326E-04    0.83     102.4  T
  14    -21.0475766 -0.114089E-08  0.144E-04    0.83     230.8  T
  15    -21.0475766 -0.240814E-09  0.921E-06    0.83    3617.5  T
     SCC iter.                  ...        0 min,  0.003 sec
     gradient                   ...        0 min,  0.002 sec
 * total energy  :   -20.9638336 Eh     change       -0.2509468E-01 Eh
   gradient norm :     0.1052901 Eh/α   predicted    -0.2451807E-01 (  -2.30%)
   displ. norm   :     0.5154243 α      lambda       -0.2553709E-01
   maximum displ.:     0.3455431 α      in ANC's #2, #11, #12, ...

........................................................................
.............................. CYCLE   33 ..............................
........................................................................
   1    -21.0243569 -0.210244E+02  0.229E+00    0.76       0.0  T
   2    -20.9027208  0.121636E+00  0.359E+00    1.41       1.0  T
   3    -21.0669613 -0.164240E+00  0.787E-01    0.94       1.0  T
   4    -21.0683041 -0.134282E-02  0.379E-01    0.90       1.0  T
   5    -21.0689247 -0.620592E-03  0.957E-02    0.92       1.0  T
   6    -21.0689452 -0.205545E-04  0.455E-02    0.92       1.0  T
   7    -21.0689520 -0.671100E-05  0.209E-02    0.91       1.6  T
   8    -21.0689542 -0.221388E-05  0.113E-02    0.92       2.9  T
   9    -21.0689550 -0.788953E-06  0.365E-03    0.92       9.1  T
  10    -21.0689550 -0.204775E-07  0.196E-03    0.92      17.0  T
  11    -21.0689550 -0.284011E-07  0.532E-04    0.92      62.6  T
  12    -21.0689550 -0.130267E-09  0.196E-04    0.92     170.5  T
  13    -21.0689550 -0.338225E-09  0.518E-05    0.92     643.8  T
     SCC iter.                  ...        0 min,  0.003 sec
     gradient                   ...        0 min,  0.002 sec
 * total energy  :   -20.9807920 Eh     change       -0.1695848E-01 Eh
   gradient norm :     0.1135930 Eh/α   predicted    -0.1616064E-01 (  -4.70%)
   displ. norm   :     0.6730179 α      lambda       -0.2023837E-01
   maximum displ.:     0.4009379 α      in ANC's #2, #1, #6, ...

........................................................................
.............................. CYCLE   34 ..............................
........................................................................
   1    -21.0372945 -0.210373E+02  0.239E+00    0.93       0.0  T
   2    -21.0222779  0.150166E-01  0.215E+00    1.44       1.0  T
   3    -21.0527798 -0.305019E-01  0.116E+00    0.96       1.0  T
   4    -21.0615787 -0.879886E-02  0.454E-01    1.08       1.0  T
   5    -21.0622989 -0.720172E-03  0.116E-01    1.04       1.0  T
   6    -21.0623712 -0.723206E-04  0.607E-02    1.04       1.0  T
   7    -21.0623879 -0.167577E-04  0.253E-02    1.03       1.3  T
   8    -21.0623896 -0.164379E-05  0.796E-03    1.03       4.2  T
   9    -21.0623897 -0.161675E-06  0.419E-03    1.03       8.0  T
  10    -21.0623898 -0.184878E-07  0.129E-03    1.03      25.8  T
  11    -21.0623898 -0.474712E-08  0.588E-04    1.03      56.7  T
  12    -21.0623898 -0.455511E-09  0.993E-05    1.03     335.7  T
  13    -21.0623898 -0.124096E-10  0.582E-05    1.03     572.5  T
     SCC iter.                  ...        0 min,  0.003 sec
     gradient                   ...        0 min,  0.002 sec
 * total energy  :   -20.9904647 Eh     change       -0.9672667E-02 Eh
   gradient norm :     0.0902522 Eh/α   predicted    -0.1470272E-01 (  52.00%)
   displ. norm   :     0.6970295 α      lambda       -0.2484067E-01
   maximum displ.:     0.3375938 α      in ANC's #8, #11, #10, ...

........................................................................
.............................. CYCLE   35 ..............................
........................................................................
   1    -21.0150260 -0.210150E+02  0.260E+00    0.75       0.0  T
   2    -21.0117454  0.328059E-02  0.261E+00    1.57       1.0  T
   3    -21.0555876 -0.438422E-01  0.113E+00    1.16       1.0  T
   4    -21.0563056 -0.717993E-03  0.599E-01    1.17       1.0  T
   5    -21.0574636 -0.115800E-02  0.106E-01    1.13       1.0  T
   6    -21.0574906 -0.269802E-04  0.619E-02    1.13       1.0  T
   7    -21.0574986 -0.801534E-05  0.349E-02    1.14       1.0  T
   8    -21.0575027 -0.405918E-05  0.111E-02    1.13       3.0  T
   9    -21.0575028 -0.153662E-06  0.497E-03    1.13       6.7  T
  10    -21.0575029 -0.476363E-07  0.183E-03    1.13      18.2  T
  11    -21.0575029 -0.936121E-08  0.699E-04    1.13      47.7  T
  12    -21.0575029 -0.260188E-08  0.144E-04    1.13     230.9  T
  13    -21.0575029 -0.172768E-10  0.618E-05    1.13     539.1  T
     SCC iter.                  ...        0 min,  0.003 sec
     gradient                   ...        0 min,  0.002 sec
 * total energy  :   -20.9853226 Eh     change        0.5142070E-02 Eh
   gradient norm :     0.1279257 Eh/α   predicted    -0.1845477E-01 (-458.90%)
   displ. norm   :     0.5008192 α      lambda       -0.4307596E-01
   maximum displ.:     0.3121378 α      in ANC's #4, #5, #3, ...

........................................................................
.............................. CYCLE   36 ..............................
........................................................................
   1    -21.0893694 -0.210894E+02  0.155E+00    1.33       0.0  T
   2    -21.0918233 -0.245393E-02  0.955E-01    1.13       1.0  T
   3    -21.0929679 -0.114463E-02  0.619E-01    1.25       1.0  T
   4    -21.0938478 -0.879910E-03  0.340E-01    1.14       1.0  T
   5    -21.0947275 -0.879631E-03  0.972E-02    1.19       1.0  T
   6    -21.0947786 -0.511407E-04  0.428E-02    1.17       1.0  T
   7    -21.0947824 -0.374517E-05  0.151E-02    1.18       2.2  T
   8    -21.0947827 -0.324416E-06  0.680E-03    1.17       4.9  T
   9    -21.0947827 -0.453276E-07  0.133E-03    1.17      25.0  T
  10    -21.0947827 -0.302011E-08  0.668E-04    1.17      49.9  T
  11    -21.0947827 -0.385064E-09  0.178E-04    1.17     187.0  T
  12    -21.0947827 -0.475744E-10  0.521E-05    1.17     639.7  T
     SCC iter.                  ...        0 min,  0.002 sec
     gradient                   ...        0 min,  0.002 sec
 * total energy  :   -21.0058072 Eh     change       -0.2048453E-01 Eh
   gradient norm :     0.1404010 Eh/α   predicted    -0.2694016E-01 (  31.51%)
   displ. norm   :     0.4854429 α      lambda       -0.3052590E-01
   maximum displ.:     0.3693423 α      in ANC's #2, #5, #4, ...

........................................................................
.............................. CYCLE   37 ..............................
........................................................................
   1    -21.0411534 -0.210412E+02  0.180E+00    0.95       0.0  T
   2    -21.0457502 -0.459680E-02  0.127E+00    0.98       1.0  T
   3    -21.0526699 -0.691974E-02  0.572E-01    1.01       1.0  T
   4    -21.0530465 -0.376561E-03  0.192E-01    0.96       1.0  T
   5    -21.0531375 -0.910102E-04  0.122E-01    1.00       1.0  T
   6    -21.0532663 -0.128829E-03  0.429E-02    0.99       1.0  T
   7    -21.0532710 -0.471918E-05  0.113E-02    0.99       3.0  T
   8    -21.0532712 -0.161842E-06  0.411E-03    0.99       8.1  T
   9    -21.0532712 -0.107236E-07  0.139E-03    0.99      24.0  T
  10    -21.0532712 -0.170906E-08  0.561E-04    0.99      59.4  T
  11    -21.0532712 -0.713236E-09  0.184E-04    0.99     181.7  T
  12    -21.0532712 -0.107693E-09  0.692E-05    0.99     481.7  T
     SCC iter.                  ...        0 min,  0.002 sec
     gradient                   ...        0 min,  0.002 sec
 * total energy  :   -21.0005941 Eh     change        0.5213056E-02 Eh
   gradient norm :     0.1935480 Eh/α   predicted    -0.1885973E-01 (-461.78%)
   displ. norm   :     0.2541147 α      lambda       -0.3267241E-01
   maximum displ.:     0.1391296 α      in ANC's #9, #6, #4, ...

........................................................................
.............................. CYCLE   38 ..............................
........................................................................
   1    -21.0757070 -0.210757E+02  0.903E-01    1.00       0.0  T
   2    -21.0757911 -0.841176E-04  0.606E-01    0.94       1.0  T
   3    -21.0760599 -0.268851E-03  0.477E-01    1.04       1.0  T
   4    -21.0770746 -0.101468E-02  0.210E-01    0.95       1.0  T
   5    -21.0774667 -0.392126E-03  0.465E-02    0.98       1.0  T
   6    -21.0774732 -0.642316E-05  0.201E-02    0.98       1.7  T
   7    -21.0774735 -0.363601E-06  0.643E-03    0.98       5.2  T
   8    -21.0774736 -0.955507E-07  0.254E-03    0.98      13.1  T
   9    -21.0774736 -0.544174E-08  0.815E-04    0.98      40.9  T
  10    -21.0774736 -0.933731E-09  0.384E-04    0.98      86.7  T
  11    -21.0774736 -0.216676E-09  0.717E-05    0.98     465.2  T
  12    -21.0774736 -0.451195E-11  0.328E-05    0.98    1015.7  T
     SCC iter.                  ...        0 min,  0.002 sec
     gradient                   ...        0 min,  0.002 sec
 * total energy  :   -21.0201651 Eh     change       -0.1957101E-01 Eh
   gradient norm :     0.0666756 Eh/α   predicted    -0.1739111E-01 ( -11.14%)
   displ. norm   :     0.2989526 α      lambda       -0.1319958E-01
   maximum displ.:     0.1369666 α      in ANC's #6, #4, #19, ...

........................................................................
.............................. CYCLE   39 ..............................
........................................................................
   1    -21.0713499 -0.210713E+02  0.122E+00    0.83       0.0  T
   2    -21.0663456  0.500424E-02  0.125E+00    1.13       1.0  T
   3    -21.0772663 -0.109206E-01  0.472E-01    0.92       1.0  T
   4    -21.0773658 -0.995145E-04  0.214E-01    0.95       1.0  T
   5    -21.0777638 -0.398031E-03  0.355E-02    0.94       1.0  T
   6    -21.0777649 -0.104162E-05  0.201E-02    0.94       1.7  T
   7    -21.0777658 -0.927002E-06  0.589E-03    0.94       5.7  T
   8    -21.0777658 -0.335936E-07  0.184E-03    0.94      18.1  T
   9    -21.0777658 -0.213205E-08  0.892E-04    0.94      37.4  T
  10    -21.0777658 -0.135206E-08  0.159E-04    0.94     209.6  T
  11    -21.0777658 -0.662475E-10  0.738E-05    0.94     451.4  T
     SCC iter.                  ...        0 min,  0.002 sec
     gradient                   ...        0 min,  0.002 sec
 * total energy  :   -21.0243204 Eh     change       -0.4155235E-02 Eh
   gradient norm :     0.1140787 Eh/α   predicted    -0.7189633E-02 (  73.03%)
   displ. norm   :     0.2987528 α      lambda       -0.1329422E-01
   maximum displ.:     0.1344756 α      in ANC's #3, #5, #14, ...

........................................................................
.............................. CYCLE   40 ..............................
........................................................................
   1    -21.0707005 -0.210707E+02  0.107E+00    0.95       0.0  T
   2    -21.0685268  0.217366E-02  0.973E-01    0.75       1.0  T
   3    -21.0737730 -0.524613E-02  0.468E-01    0.91       1.0  T
   4    -21.0742995 -0.526536E-03  0.227E-01    0.83       1.0  T
   5    -21.0747168 -0.417274E-03  0.451E-02    0.86       1.0  T
   6    -21.0747255 -0.869846E-05  0.182E-02    0.86       1.8  T
   7    -21.0747258 -0.312222E-06  0.917E-03    0.85       3.6  T
   8    -21.0747259 -0.692847E-07  0.225E-03    0.85      14.8  T
   9    -21.0747259 -0.383330E-08  0.110E-03    0.85      30.2  T
  10    -21.0747259 -0.300238E-08  0.374E-04    0.85      89.0  T
  11    -21.0747259 -0.184997E-09  0.125E-04    0.85     267.6  T
  12    -21.0747259 -0.127578E-10  0.466E-05    0.85     715.3  T
     SCC iter.                  ...        0 min,  0.002 sec
     gradient                   ...        0 min,  0.002 sec
 * total energy  :   -21.0305334 Eh     change       -0.6213040E-02 Eh
   gradient norm :     0.0710410 Eh/α   predicted    -0.7240381E-02 (  16.54%)
   displ. norm   :     0.4340578 α      lambda       -0.2000894E-01
   maximum displ.:     0.1497136 α      in ANC's #3, #2, #14, ...

........................................................................
.............................. CYCLE   41 ..............................
........................................................................
   1    -21.0839601 -0.210840E+02  0.195E+00    1.17       0.0  T
   2    -21.0685521  0.154080E-01  0.199E+00    0.55       1.0  T
   3    -21.1031957 -0.346436E-01  0.720E-01    0.98       1.0  T
   4    -21.1045435 -0.134776E-02  0.265E-01    0.87       1.0  T
   5    -21.1048560 -0.312520E-03  0.794E-02    0.88       1.0  T
   6    -21.1048877 -0.316966E-04  0.358E-02    0.88       1.0  T
   7    -21.1048916 -0.390581E-05  0.193E-02    0.88       1.7  T
   8    -21.1048921 -0.471777E-06  0.661E-03    0.88       5.0  T
   9    -21.1048921 -0.564806E-07  0.287E-03    0.88      11.6  T
  10    -21.1048922 -0.141236E-07  0.652E-04    0.88      51.1  T
  11    -21.1048922 -0.489674E-09  0.237E-04    0.88     140.6  T
  12    -21.1048922 -0.600089E-10  0.546E-05    0.88     610.1  T
     SCC iter.                  ...        0 min,  0.002 sec
     gradient                   ...        0 min,  0.002 sec
 * total energy  :   -21.0332365 Eh     change       -0.2703068E-02 Eh
   gradient norm :     0.1677108 Eh/α   predicted    -0.1188936E-01 ( 339.85%)
   displ. norm   :     0.3096937 α      lambda       -0.1761599E-01
   maximum displ.:     0.2043234 α      in ANC's #3, #5, #1, ...

........................................................................
.............................. CYCLE   42 ..............................
........................................................................
   1    -21.0779936 -0.210780E+02  0.109E+00    0.77       0.0  T
   2    -21.0774345  0.559133E-03  0.697E-01    0.93       1.0  T
   3    -21.0755507  0.188377E-02  0.671E-01    0.74       1.0  T
   4    -21.0791558 -0.360513E-02  0.126E-01    0.86       1.0  T
   5    -21.0792681 -0.112273E-03  0.357E-02    0.84       1.0  T
   6    -21.0792717 -0.356422E-05  0.191E-02    0.85       1.7  T
   7    -21.0792726 -0.903992E-06  0.389E-03    0.84       8.6  T
   8    -21.0792726 -0.208672E-07  0.190E-03    0.84      17.5  T
   9    -21.0792726 -0.441997E-08  0.768E-04    0.84      43.4  T
  10    -21.0792726 -0.130093E-08  0.298E-04    0.84     111.7  T
  11    -21.0792726 -0.135998E-09  0.123E-04    0.84     271.8  T
     SCC iter.                  ...        0 min,  0.002 sec
     gradient                   ...        0 min,  0.002 sec
 * total energy  :   -21.0430242 Eh     change       -0.9787692E-02 Eh
   gradient norm :     0.0675336 Eh/α   predicted    -0.9652786E-02 (  -1.38%)
   displ. norm   :     0.1789042 α      lambda       -0.8897301E-02
   maximum displ.:     0.0922817 α      in ANC's #5, #1, #11, ...
 * RMSD in coord.:     1.9869023 α      energy gain  -0.2282962E+00 Eh

generating ANC from model Hessian ...
Using Lindh-Hessian (1995)
 Shifting diagonal of input Hessian by   2.852759049589629E-003
 Lowest  eigenvalues of input Hessian
   -0.000000   -0.000000    0.000000    0.000000    0.000000    0.000000
    0.010000    0.022217    0.047756    0.081689    0.110819    0.126160
    0.157170    0.165147    0.217762    0.323525    0.383942    0.396738
 Highest eigenvalues
    1.275535    1.549323    1.633123    1.807656    2.121020    2.960253
 

........................................................................
.............................. CYCLE   43 ..............................
........................................................................
   1    -21.0966684 -0.210967E+02  0.629E-01    0.91       0.0  T
   2    -21.0955234  0.114507E-02  0.676E-01    1.06       1.0  T
   3    -21.0991773 -0.365397E-02  0.217E-01    0.93       1.0  T
   4    -21.0992274 -0.500559E-04  0.946E-02    0.95       1.0  T
   5    -21.0992601 -0.326705E-04  0.246E-02    0.95       1.4  T
   6    -21.0992623 -0.224064E-05  0.114E-02    0.95       2.9  T
   7    -21.0992627 -0.346704E-06  0.504E-03    0.95       6.6  T
   8    -21.0992627 -0.558709E-07  0.160E-03    0.95      20.9  T
   9    -21.0992627 -0.254570E-08  0.519E-04    0.95      64.3  T
  10    -21.0992627 -0.625192E-09  0.202E-04    0.95     165.1  T
  11    -21.0992627 -0.399893E-10  0.668E-05    0.95     499.4  T
  12    -21.0992627 -0.132196E-10  0.225E-05    0.95    1481.7  T
[...]
........................................................................
   1    -21.1026249 -0.211026E+02  0.102E-01    1.11       0.0  T
   2    -21.1026281 -0.313744E-05  0.572E-02    1.11       1.0  T
   3    -21.1026177  0.103627E-04  0.386E-02    1.10       1.0  T
   4    -21.1026299 -0.122363E-04  0.867E-03    1.11       3.8  T
   5    -21.1026304 -0.517010E-06  0.336E-03    1.11       9.9  T
   6    -21.1026305 -0.332019E-07  0.147E-03    1.11      22.7  T
   7    -21.1026305 -0.426443E-08  0.392E-04    1.11      85.0  T
   8    -21.1026305 -0.290278E-09  0.209E-04    1.11     159.6  T
   9    -21.1026305 -0.490807E-10  0.679E-05    1.11     491.1  T
  10    -21.1026305 -0.581579E-11  0.232E-05    1.11    1434.1  T
     SCC iter.                  ...        0 min,  0.002 sec
     gradient                   ...        0 min,  0.002 sec
 * total energy  :   -21.2799637 Eh     change       -0.9715138E-04 Eh
   gradient norm :     0.0049763 Eh/α   predicted    -0.8516995E-04 ( -12.33%)
   displ. norm   :     0.0131765 α      lambda       -0.4073262E-04
   maximum displ.:     0.0061882 α      in ANC's #7, #2, #12, ...

........................................................................
.............................. CYCLE   35 ..............................
........................................................................
   1    -21.1024477 -0.211024E+02  0.505E-02    1.10       0.0  T
   2    -21.1024497 -0.197900E-05  0.347E-02    1.11       1.0  T
   3    -21.1024532 -0.349114E-05  0.200E-02    1.11       1.7  T
   4    -21.1024541 -0.923386E-06  0.101E-02    1.11       3.3  T
   5    -21.1024549 -0.809755E-06  0.242E-03    1.11      13.8  T
   6    -21.1024549 -0.207141E-07  0.113E-03    1.11      29.6  T
   7    -21.1024549 -0.219284E-08  0.441E-04    1.11      75.6  T
   8    -21.1024549 -0.403983E-09  0.159E-04    1.11     210.0  T
   9    -21.1024549 -0.143920E-10  0.649E-05    1.11     513.7  T
  10    -21.1024549 -0.729372E-11  0.963E-06    1.11    3461.7  T
     SCC iter.                  ...        0 min,  0.002 sec
     gradient                   ...        0 min,  0.002 sec
 * total energy  :   -21.2799890 Eh     change       -0.2532990E-04 Eh
   gradient norm :     0.0040541 Eh/α   predicted    -0.2036948E-04 ( -19.58%)
   displ. norm   :     0.0116752 α      lambda       -0.2112560E-04
   maximum displ.:     0.0083172 α      in ANC's #2, #18, #10, ...

........................................................................
.............................. CYCLE   36 ..............................
........................................................................
   1    -21.1024490 -0.211024E+02  0.361E-02    1.11       0.0  T
   2    -21.1024499 -0.948366E-06  0.199E-02    1.11       1.7  T
   3    -21.1024499  0.365873E-07  0.122E-02    1.11       2.7  T
   4    -21.1024505 -0.578600E-06  0.324E-03    1.11      10.3  T
   5    -21.1024505 -0.767522E-07  0.147E-03    1.11      22.6  T
   6    -21.1024506 -0.128069E-07  0.564E-04    1.11      59.1  T
   7    -21.1024506 -0.307519E-09  0.195E-04    1.11     170.6  T
   8    -21.1024506 -0.585025E-10  0.881E-05    1.11     378.3  T
   9    -21.1024506 -0.658318E-11  0.168E-05    1.11    1990.0  T
     SCC iter.                  ...        0 min,  0.002 sec
     gradient                   ...        0 min,  0.002 sec
 * total energy  :   -21.2800014 Eh     change       -0.1237031E-04 Eh
   gradient norm :     0.0022000 Eh/α   predicted    -0.1056483E-04 ( -14.60%)
   displ. norm   :     0.0062637 α      lambda       -0.8084372E-05
   maximum displ.:     0.0028618 α      in ANC's #2, #10, #4, ...

........................................................................
.............................. CYCLE   37 ..............................
........................................................................
   1    -21.1026873 -0.211027E+02  0.194E-02    1.11       0.0  T
   2    -21.1026875 -0.196317E-06  0.117E-02    1.11       2.8  T
   3    -21.1026874  0.924863E-07  0.824E-03    1.11       4.0  T
   4    -21.1026877 -0.341478E-06  0.282E-03    1.11      11.8  T
   5    -21.1026878 -0.718550E-07  0.610E-04    1.11      54.7  T
   6    -21.1026878 -0.999421E-09  0.264E-04    1.11     126.4  T
   7    -21.1026878 -0.368914E-10  0.830E-05    1.11     401.8  T
   8    -21.1026878 -0.148646E-10  0.258E-05    1.11    1293.5  T
   9    -21.1026878 -0.188294E-12  0.935E-06    1.11    3565.1  T
     SCC iter.                  ...        0 min,  0.002 sec
     gradient                   ...        0 min,  0.002 sec
 * total energy  :   -21.2800068 Eh     change       -0.5462880E-05 Eh
   gradient norm :     0.0015633 Eh/α   predicted    -0.4043222E-05 ( -25.99%)
   displ. norm   :     0.0083417 α      lambda       -0.5488738E-05
   maximum displ.:     0.0038718 α      in ANC's #14, #1, #12, ...

........................................................................
.............................. CYCLE   38 ..............................
........................................................................
   1    -21.1025804 -0.211026E+02  0.295E-02    1.11       0.0  T
   2    -21.1025807 -0.271424E-06  0.160E-02    1.11       2.1  T
   3    -21.1025797  0.940120E-06  0.117E-02    1.11       2.8  T
   4    -21.1025809 -0.112087E-05  0.201E-03    1.11      16.6  T
   5    -21.1025809 -0.286137E-07  0.694E-04    1.11      48.0  T
   6    -21.1025809 -0.326686E-09  0.344E-04    1.11      96.9  T
   7    -21.1025809 -0.451578E-09  0.955E-05    1.11     348.9  T
   8    -21.1025809 -0.229043E-10  0.432E-05    1.11     770.8  T
   9    -21.1025809 -0.150990E-11  0.821E-06    1.11    4057.8  T
     SCC iter.                  ...        0 min,  0.002 sec
     gradient                   ...        0 min,  0.002 sec
 * total energy  :   -21.2800106 Eh     change       -0.3769089E-05 Eh
   gradient norm :     0.0019045 Eh/α   predicted    -0.2744987E-05 ( -27.17%)
   displ. norm   :     0.0039439 α      lambda       -0.2260208E-05
   maximum displ.:     0.0017857 α      in ANC's #8, #7, #14, ...

........................................................................
.............................. CYCLE   39 ..............................
........................................................................
   1    -21.1027764 -0.211028E+02  0.163E-02    1.11       0.0  T
   2    -21.1027764 -0.567331E-07  0.115E-02    1.11       2.9  T
   3    -21.1027767 -0.299668E-06  0.709E-03    1.11       4.7  T
   4    -21.1027770 -0.215048E-06  0.308E-03    1.11      10.8  T
   5    -21.1027770 -0.710011E-07  0.551E-04    1.11      60.5  T
   6    -21.1027770 -0.277158E-09  0.251E-04    1.11     133.1  T
   7    -21.1027770 -0.772467E-10  0.562E-05    1.11     593.5  T
   8    -21.1027770 -0.583356E-11  0.258E-05    1.11    1290.6  T
   9    -21.1027770 -0.710543E-12  0.103E-05    1.11    3224.6  T
     SCC iter.                  ...        0 min,  0.002 sec
     gradient                   ...        0 min,  0.002 sec
 * total energy  :   -21.2800121 Eh     change       -0.1454788E-05 Eh
   gradient norm :     0.0005236 Eh/α   predicted    -0.1128152E-05 ( -22.45%)
   displ. norm   :     0.0043117 α      lambda       -0.1049220E-05
   maximum displ.:     0.0021646 α      in ANC's #1, #2, #4, ...

........................................................................
.............................. CYCLE   40 ..............................
........................................................................
   1    -21.1026613 -0.211027E+02  0.138E-02    1.11       0.0  T
   2    -21.1026613  0.486178E-07  0.927E-03    1.11       3.6  T
   3    -21.1026613 -0.526122E-07  0.685E-03    1.11       4.9  T
   4    -21.1026616 -0.240917E-06  0.158E-03    1.11      21.1  T
   5    -21.1026616 -0.217064E-07  0.332E-04    1.11     100.5  T
   6    -21.1026616 -0.249429E-09  0.162E-04    1.11     206.0  T
   7    -21.1026616 -0.189750E-10  0.429E-05    1.11     777.1  T
   8    -21.1026616 -0.196820E-11  0.135E-05    1.11    2461.4  T
     SCC iter.                  ...        0 min,  0.002 sec
     gradient                   ...        0 min,  0.002 sec
 * total energy  :   -21.2800126 Eh     change       -0.5639287E-06 Eh
   gradient norm :     0.0004333 Eh/α   predicted    -0.5244447E-06 (  -7.00%)
   displ. norm   :     0.0011093 α      lambda       -0.1855985E-06
   maximum displ.:     0.0004665 α      in ANC's #1, #3, #5, ...

........................................................................
.............................. CYCLE   41 ..............................
........................................................................
   1    -21.1026551 -0.211027E+02  0.255E-03    1.11       0.0  T
   2    -21.1026551 -0.498875E-08  0.177E-03    1.11      18.8  T
   3    -21.1026551 -0.106431E-07  0.102E-03    1.11      32.8  T
   4    -21.1026551 -0.143564E-08  0.524E-04    1.11      63.7  T
   5    -21.1026551 -0.241073E-08  0.984E-05    1.11     338.6  T
   6    -21.1026551 -0.361844E-10  0.398E-05    1.11     836.5  T
   7    -21.1026551 -0.987654E-12  0.153E-05    1.11    2180.6  T
     SCC iter.                  ...        0 min,  0.001 sec
     gradient                   ...        0 min,  0.002 sec
 * total energy  :   -21.2800128 Eh     change       -0.1530530E-06 Eh
   gradient norm :     0.0002111 Eh/α   predicted    -0.9366337E-07 ( -38.80%)
   displ. norm   :     0.0007331 α      lambda       -0.4853180E-07
   maximum displ.:     0.0003973 α      in ANC's #1, #4, #16, ...

........................................................................
.............................. CYCLE   42 ..............................
........................................................................
   1    -21.1026931 -0.211027E+02  0.193E-03    1.11       0.0  T
   2    -21.1026931 -0.106864E-08  0.121E-03    1.11      27.5  T
   3    -21.1026931  0.244284E-08  0.994E-04    1.11      33.5  T
   4    -21.1026931 -0.573147E-08  0.245E-04    1.11     135.8  T
   5    -21.1026931 -0.380471E-09  0.821E-05    1.11     405.8  T
   6    -21.1026931 -0.192273E-10  0.452E-05    1.11     736.8  T
   7    -21.1026931 -0.277112E-11  0.174E-05    1.11    1919.3  T
     SCC iter.                  ...        0 min,  0.001 sec
     gradient                   ...        0 min,  0.002 sec
 * total energy  :   -21.2800128 Eh     change       -0.3255216E-07 Eh
   gradient norm :     0.0000870 Eh/α   predicted    -0.2543872E-07 ( -21.85%)
   displ. norm   :     0.0003981 α      lambda       -0.1081085E-07
   maximum displ.:     0.0002221 α      in ANC's #4, #3, #10, ...

   *** GEOMETRY OPTIMIZATION CONVERGED AFTER 42 ITERATIONS ***

------------------------------------------------------------------------
 total energy gain :          -0.1348106 Eh      -84.5949 kcal/mol
 total RMSD        :           3.0702976 α         1.6247 Å
------------------------------------------------------------------------

 ANCopt (total)                0 d,  0 h,  0 min,  0.239 sec
 optimizer setup                ...        0 min,  0.000 sec (  0.031%)
 model hessian                  ...        0 min,  0.001 sec (  0.340%)
 ANC generation                 ...        0 min,  0.000 sec (  0.116%)
 coordinate transformation      ...        0 min,  0.000 sec (  0.128%)
 single point calculation       ...        0 min,  0.232 sec ( 97.162%)
 optimization log               ...        0 min,  0.002 sec (  0.638%)
 hessian update                 ...        0 min,  0.000 sec (  0.110%)
 rational function              ...        0 min,  0.002 sec (  0.778%)

================
 final structure:
================
$coord
   -0.07843508740588   -1.47973928409296   -2.41888819611728      N 
   -0.84554546960200   -2.07733795600485    0.10397963487175      C 
   -3.05242174418518   -2.71822122651523    0.75499185785674      N 
   -5.01554927256583   -3.20803945181513    1.49650394606243      N 
    2.62595875118936   -1.05554747952636   -2.15505377953177      O 
    3.34192344032056   -1.48873805288670    0.25193886637484      N 
    1.43773680531829   -2.09535478100632    1.59950624113592      C 
   -0.83490624053618    0.13836472364338   -3.14820149134800      H 
    1.57941135118821   -2.51022987204207    3.57391222326638      H 
$end
 
 Bond Distances (Angstroems)
 ---------------------------
N1-C2=1.4308         N1-O5=1.4553         N1-H8=1.0210         C2-N1=1.4308         C2-N3=1.2639         C2-C7=1.4444         
N3-C2=1.2639         N3-N4=1.1403         N4-N3=1.1403         O5-N1=1.4553         O5-N6=1.3485         N6-O5=1.3485         
N6-C7=1.2755         C7-C2=1.4444         C7-N6=1.2755         C7-H9=1.0703         H8-N1=1.0210         H9-C7=1.0703         
 C  H  Rav=1.0703 sigma=0.0000  Rmin=1.0703  Rmax=1.0703     1
 C  C  Rav=1.4444 sigma=0.0000  Rmin=1.4444  Rmax=1.4444     1
 N  H  Rav=1.0210 sigma=0.0000  Rmin=1.0210  Rmax=1.0210     1
 N  C  Rav=1.3234 sigma=0.0761  Rmin=1.2639  Rmax=1.4308     3
 N  N  Rav=1.1403 sigma=0.0000  Rmin=1.1403  Rmax=1.1403     1
 O  N  Rav=1.4019 sigma=0.0534  Rmin=1.3485  Rmax=1.4553     2
 
 selected bond angles (degree)
 --------------------
O5-N1-C2=102.92                H8-N1-C2=115.27                H8-N1-O5=107.01                N3-C2-N1=125.15                
C7-C2-N1=105.98                C7-C2-N3=128.45                N4-N3-C2=175.22                N6-O5-N1=109.92                
C7-N6-O5=110.42                N6-C7-C2=110.66                H9-C7-C2=126.50                H9-C7-N6=122.82                
 
 selected dihedral angles (degree)
 ---------------------------------
N3-C2-N1-O5=183.86            N3-C2-N1-H8= 67.75            C7-C2-N1-O5=356.99            C7-C2-N1-H8=240.88            
N4-N3-C2-N1=214.77            N4-N3-C2-C7= 43.22            N6-O5-N1-C2=  2.69            N6-O5-N1-H8=124.57            
C7-N6-O5-N1=358.78            N6-C7-C2-N1=  2.57            N6-C7-C2-N3=175.40            H9-C7-C2-N1=181.31            
H9-C7-C2-N3=354.14            C2-C7-N6-O5=359.15            H9-C7-N6-O5=180.35            

========================================================================
 FINAL SINGLEPOINT CALCULATION ON OPTIMIZED GEOMETRY
========================================================================

          ...................................................
          :                      SETUP                      :
          :.................................................:
          :  # basis functions                  30          :
          :  # atomic orbitals                  30          :
          :  # shells                           16          :
          :  # electrons                        36          :
          :  max. iterations                    50          :
          :  Hamiltonian                  GFN2-xTB          :
          :  restarted?                      false          :
          :  GBSA solvation                  false          :
          :  PC potential                    false          :
          :  electronic temp.          300.0000000     K    :
          :  accuracy                    1.0000000          :
          :  -> integral cutoff          0.2500000E+02      :
          :  -> integral neglect         0.1000000E-07      :
          :  -> SCF convergence          0.1000000E-05 Eh   :
          :  -> wf. convergence          0.1000000E-03 e    :
          :  Broyden damping             0.4000000          :
          ...................................................

 iter      E             dE          RMSdq      gap      omega  full diag
   1    -21.1026931 -0.211027E+02  0.994E-06    1.11       0.0  T
   2    -21.1026931 -0.234479E-12  0.505E-06    1.11    6604.0  T
   3    -21.1026931  0.461853E-13  0.442E-06    1.11    7548.0  T

   *** convergence criteria satisfied after 3 iterations ***

         #    Occupation            Energy/Eh            Energy/eV
      -------------------------------------------------------------
         1        2.0000           -0.7702194             -20.9587
       ...           ...                  ...                  ...
        12        2.0000           -0.5354106             -14.5693
        13        2.0000           -0.5211300             -14.1807
        14        2.0000           -0.4925067             -13.4018
        15        2.0000           -0.4778086             -13.0018
        16        2.0000           -0.4676274             -12.7248
        17        2.0000           -0.4425495             -12.0424
        18        2.0000           -0.3618989              -9.8478 (HOMO)
        19                         -0.3212204              -8.7409 (LUMO)
        20                         -0.2809899              -7.6461
        21                         -0.1837197              -4.9993
        22                         -0.1386488              -3.7728
        23                         -0.0169618              -0.4616
       ...                                ...                  ...
        30                          1.0065098              27.3885
      -------------------------------------------------------------
                  HL-Gap            0.0406785 Eh            1.1069 eV
             Fermi-level           -0.3415597 Eh           -9.2943 eV

 SCC (total)                   0 d,  0 h,  0 min,  0.004 sec
 SCC setup                      ...        0 min,  0.000 sec (  2.181%)
 Dispersion                     ...        0 min,  0.000 sec (  0.690%)
 integral evaluation            ...        0 min,  0.001 sec ( 26.595%)
 zeroth order Hamiltonian       ...        0 min,  0.000 sec (  0.742%)
 iterations                     ...        0 min,  0.001 sec ( 17.555%)
 molecular gradient             ...        0 min,  0.002 sec ( 47.533%)
 printout                       ...        0 min,  0.000 sec (  3.857%)

         :::::::::::::::::::::::::::::::::::::::::::::::::::::
         ::                     SUMMARY                     ::
         :::::::::::::::::::::::::::::::::::::::::::::::::::::
         :: total energy              -21.280012803051 Eh   ::
         :: gradient norm               0.000087306836 Eh/α ::
         :: HOMO-LUMO gap               1.106918931958 eV   ::
         ::.................................................::
         :: SCC energy                -21.102693102474 Eh   ::
         :: -> isotropic ES             0.014439471673 Eh   ::
         :: -> anisotropic ES           0.004277958936 Eh   ::
         :: -> anisotropic XC           0.031466049369 Eh   ::
         :: -> dispersion              -0.005836347266 Eh   ::
         :: repulsion energy            0.227109097543 Eh   ::
         :: add. restraining           -0.404431942036 Eh   ::
         :::::::::::::::::::::::::::::::::::::::::::::::::::::

  # of points on xtbopt.log:           42
  doing short optimizations without Vbias ... 
   10  unconstrained dE :      0.030405
   20  unconstrained dE :      0.016064
   30  unconstrained dE :     -0.008174
   40  unconstrained dE :     -0.008370
 final path written to xtbpath_3.xyz
 
 energies in kcal/mol, RMSD in Bohr
run 1  barrier:  36.78  dE:  -5.25  ed-prod RMSD:  3.07  ed-startpath RMSD:  0.00  prod-endpath RMSD:  0.00
run 2  barrier:  34.10  dE:  -5.25  ed-prod RMSD:  3.07  ed-startpath RMSD:  0.00  prod-endpath RMSD:  0.00
run 3  barrier:  27.68  dE:  -5.25  ed-prod RMSD:  3.07  ed-startpath RMSD:  0.00  prod-endpath RMSD:  0.00
 check potential xtbpath.dat (cummu. dRMSD in Bohr vs. E in kcal)

------------------------------------------------------------------------
 * finished run on 2021/06/02 at 10:00:06.218     
------------------------------------------------------------------------
 total:
 * wall-time:     0 d,  0 h,  0 min,  2.692 sec
 *  cpu-time:     0 d,  0 h,  0 min,  2.677 sec
 * ratio c/w:     0.994 speedup
 SCF:
 * wall-time:     0 d,  0 h,  0 min,  0.007 sec
 *  cpu-time:     0 d,  0 h,  0 min,  0.007 sec
 * ratio c/w:     0.993 speedup

