      -----------------------------------------------------------      
     |                   =====================                   |     
     |                           x T B                           |     
     |                   =====================                   |     
     |                         S. Grimme                         |     
     |          Mulliken Center for Theoretical Chemistry        |     
     |                    University of Bonn                     |     
     |                 Version 6.1.4 (SAW190525)                 |     
      -----------------------------------------------------------      

   This program is distributed in the hope that it will be useful,
   but WITHOUT ANY WARRANTY; without even the implied warranty of
   MERCHANTABILITY or FITNESS FOR A PARTICULAR PURPOSE.
   
   FOR NON-COMMERCIAL, ACADEMIA USE ONLY.
   
   Cite this work as:
   S. Grimme, C. Bannwarth, P. Shushkov, J. Comput. Theory Chem., 2017,
   13, 1989-2009. DOI: 10.1021/acs.jctc.7b00118
   C. Bannwarth, S. Ehlert and S. Grimme., J. Comput. Theory Chem., 2019,
   just accepted. DOI: 10.1021/acs.jctc.8b01176
   
   for sTDA-xTB:
   S. Grimme and C. Bannwarth, J. Chem. Phys., 2016, 145, 054103.
   DOI: 10.1063/1.4959605
   
   in the mass-spec context:
   V. Asgeirsson, C. Bauer and S. Grimme, Chem. Sci., 2017, 8, 4879.
   DOI: 10.1039/c7sc00601b
   
   for metadynamics refer to:
   S. Grimme, J. Chem. Theory Comput. Article ASAP, 2019,
   DOI: 10.1021/acs.jctc.9b00143
   
   with help from (in alphabetical order)
   C. Bannwarth, F. Bohle, G. Brandenburg, E. Caldeweyher, M. Checinski,
   S. Dohm, S. Ehlert, S. Ehrlich, F. März, H. Neugebauer, J. Pisarek,
   P. Pracht, P. Shushkov, and S. Spicher.
   
 * started run on 2021/03/14 at 23:57:08.536     

           -------------------------------------------------
          |                Calculation Setup                |
           -------------------------------------------------

          program call               : /opt/xtb/6.1/xtb-190527/bin/xtb 0.8_md.xyz --md --input metadyn.inp --gfn 2
          hostname                   : mnode007
          coordinate file            : 0.8_md.xyz
          omp threads                :                     1
          number of atoms            :                    12
          number of electrons        :                    36
          charge                     :                     0
          spin                       :                   0.0
          first test random number   :      0.18377872725073

spherical wallpotenial with radius    3.6488561 Å

########################################################################
# WARNING! Please study the warnings concerning your input carefully
#  - XTBPATH is not set, using XTBHOME instead
########################################################################

           ------------------------------------------------- 
          |                 G F N 2 - x T B                 |
          | Geometry, Frequencies, Noncovalent interactions |
          |            JCTC 2018 parametrisation            |
           ------------------------------------------------- 
             k(s)              :                1.8500
             k(p)              :                2.2300
             k(d)              :                2.2300
             k(f)              :                2.0000
             kEN (H0ij)        :               -2.0000
             D4 a1             :                0.5200
             D4 a2             :                5.0000
             D4 s6             :                1.0000
             D4 s8             :                2.7000
             D4 s9             :                5.0000
             alphaj            :                2.0000

  Z AO/shell   Hii/eV     exponent
  1     Wed Apr 25 08:07:45 CEST 2018   EN: 2.200 GM2: 0.406  GM3: 0.0800  RAES: 1.40
     1s    -10.707211    1.230000
  6     Wed Apr 25 08:07:45 CEST 2018   EN: 2.550 GM2: 0.538  GM3: 0.1500  RAES: 3.00
     2s    -13.970922    2.096432
     2p    -10.063292    1.800000
  8     Wed Apr 25 08:07:45 CEST 2018   EN: 3.440 GM2: 0.452  GM3:-0.0517  RAES: 1.80
     2s    -20.229985    2.439742
     2p    -15.503117    2.137023


            Z     q(EN)     CN     RAES       Cart. coordinates
     1  C   4.0    0.08    2.99    3.02     1.70115     3.61696     0.19176
     2  O   6.0   -0.34    1.00    1.80     2.76313     4.75510     1.91162
     3  C   4.0   -0.10    3.98    3.58    -0.18770     1.53135     0.59324
     4  H   1.0    0.14    0.99    1.43     1.97669     4.44918    -1.70038
     5  C   4.0   -0.05    3.97    3.58     0.30679    -0.98032    -0.69709
     6  H   1.0    0.11    0.99    1.43    -2.08854     1.91092    -0.12730
     7  H   1.0    0.16    0.99    1.43    -0.44973     0.90749     2.54819
     8  O   6.0   -0.18    1.91    1.82     2.23118    -2.52459     0.39285
     9  H   1.0    0.13    0.99    1.43     1.35130    -0.57309    -2.43866
    10  H   1.0    0.12    0.99    1.43    -1.37234    -2.17656    -0.88601
    11  O   6.0   -0.33    1.92    1.82     1.34757    -3.59150     2.76784
    12  H   1.0    0.26    0.99    1.43     0.03035    -4.78196     2.27725

           ------------------------------------------------- 
          |        Self-Consistent Charge Iterations        |
           ------------------------------------------------- 

          ...................................................
          :                      SETUP                      :
          :.................................................:
          :  # basis functions                  30          :
          :  # atomic orbitals                  30          :
          :  # shells                           18          :
          :  # electrons                        36          :
          :  max. iterations                   250          :
          :  Hamiltonian                  GFN2-xTB          :
          :  restarted?                      false          :
          :  GBSA solvation                  false          :
          :  PC potential                    false          :
          :  electronic temp.         6000.0000000     K    :
          :  accuracy                    1.0000000          :
          :  -> integral cutoff          0.2500000E+02      :
          :  -> integral neglect         0.1000000E-07      :
          :  -> SCF convergence          0.1000000E-05 Eh   :
          :  -> wf. convergence          0.1000000E-03 e    :
          :  Broyden damping             0.4000000          :
          ...................................................

 iter      E             dE          RMSdq      gap      omega  full diag
   1    -21.6702265 -0.216702E+02  0.496E+00    4.29       0.0  T
   2    -21.7023194 -0.320929E-01  0.253E+00    3.37       1.0  T
   3    -21.7027552 -0.435805E-03  0.173E+00    3.94       1.0  T
   4    -21.7113735 -0.861828E-02  0.178E-01    3.58       1.0  T
   5    -21.7115502 -0.176679E-03  0.867E-02    3.62       1.0  T
   6    -21.7115572 -0.707884E-05  0.300E-02    3.62       1.0  T
   7    -21.7115585 -0.122356E-05  0.963E-03    3.62       3.0  T
   8    -21.7115588 -0.327393E-06  0.436E-03    3.62       6.6  T
   9    -21.7115588 -0.383045E-07  0.168E-03    3.62      17.2  T
  10    -21.7115588 -0.146807E-07  0.903E-04    3.62      32.0  T
  11    -21.7115588 -0.512560E-08  0.380E-04    3.62      75.9  T

   *** convergence criteria satisfied after 11 iterations ***

         #    Occupation            Energy/Eh            Energy/eV
      -------------------------------------------------------------
         1        2.0000           -0.7361143             -20.0307
       ...           ...                  ...                  ...
        12        1.9999           -0.5382571             -14.6467
        13        1.9997           -0.5152401             -14.0204
        14        1.9991           -0.4930477             -13.4165
        15        1.9988           -0.4872801             -13.2596
        16        1.9975           -0.4722624             -12.8509
        17        1.9894           -0.4449769             -12.1084
        18        1.9486           -0.4146387             -11.2829 (HOMO)
        19        0.0665           -0.2815404              -7.6611 (LUMO)
        20        0.0004           -0.1850042              -5.0342
        21                         -0.0024067              -0.0655
        22                          0.0375441               1.0216
        23                          0.0666165               1.8127
       ...                                ...                  ...
        30                          0.5137196              13.9790
      -------------------------------------------------------------
                  HL-Gap            0.1330983 Eh            3.6218 eV
             Fermi-level           -0.3455576 Eh           -9.4031 eV

 SCC (total)                   0 d,  0 h,  0 min,  0.706 sec
 SCC setup                      ...        0 min,  0.001 sec (  0.107%)
 Dispersion                     ...        0 min,  0.000 sec (  0.037%)
 integral evaluation            ...        0 min,  0.006 sec (  0.905%)
 zeroth order Hamiltonian       ...        0 min,  0.260 sec ( 36.818%)
 iterations                     ...        0 min,  0.017 sec (  2.460%)
 molecular gradient             ...        0 min,  0.006 sec (  0.831%)
 printout                       ...        0 min,  0.415 sec ( 58.834%)

         :::::::::::::::::::::::::::::::::::::::::::::::::::::
         ::                     SUMMARY                     ::
         :::::::::::::::::::::::::::::::::::::::::::::::::::::
         :: total energy              -21.548143286976 Eh   ::
         :: gradient norm               0.093719956061 Eh/α ::
         :: HOMO-LUMO gap               3.621789070107 eV   ::
         ::.................................................::
         :: SCC energy                -21.711558840014 Eh   ::
         :: -> isotropic ES             0.050736561677 Eh   ::
         :: -> anisotropic ES          -0.002909442484 Eh   ::
         :: -> anisotropic XC          -0.002012016729 Eh   ::
         :: -> dispersion              -0.005692119884 Eh   ::
         :: repulsion energy            0.163409202746 Eh   ::
         :: add. restraining            0.000000418606 Eh   ::
         :::::::::::::::::::::::::::::::::::::::::::::::::::::

           -------------------------------------------------
          |                Property Printout                |
           -------------------------------------------------

    * Orbital Energies and Occupations

         #    Occupation            Energy/Eh            Energy/eV
      -------------------------------------------------------------
         1        2.0000           -0.7361143             -20.0307
       ...           ...                  ...                  ...
         6        2.0000           -0.6193096             -16.8523
         7        2.0000           -0.5976488             -16.2629
         8        2.0000           -0.5938216             -16.1587
         9        2.0000           -0.5836884             -15.8830
        10        2.0000           -0.5578737             -15.1805
        11        2.0000           -0.5498279             -14.9616
        12        1.9999           -0.5382571             -14.6467
        13        1.9997           -0.5152401             -14.0204
        14        1.9991           -0.4930477             -13.4165
        15        1.9988           -0.4872801             -13.2596
        16        1.9975           -0.4722624             -12.8509
        17        1.9894           -0.4449769             -12.1084
        18        1.9486           -0.4146387             -11.2829 (HOMO)
        19        0.0665           -0.2815404              -7.6611 (LUMO)
        20        0.0004           -0.1850042              -5.0342
        21                         -0.0024067              -0.0655
        22                          0.0375441               1.0216
        23                          0.0666165               1.8127
        24                          0.1208142               3.2875
        25                          0.1359414               3.6992
        26                          0.1485448               4.0421
        27                          0.1874005               5.0994
        28                          0.2193265               5.9682
        29                          0.2923158               7.9543
        30                          0.5137196              13.9790
      -------------------------------------------------------------
                  HL-Gap            0.1330983 Eh            3.6218 eV
             Fermi-level           -0.3455576 Eh           -9.4031 eV

   #   Z        covCN         q      C6AA      α(0)
   1   6 C      2.756     0.204    23.659     7.965
   2   8 O      0.856    -0.315    20.059     6.005
   3   6 C      3.801    -0.089    22.206     6.709
   4   1 H      0.923     0.041     2.440     2.443
   5   6 C      3.674     0.076    19.543     6.335
   6   1 H      0.924     0.074     2.046     2.237
   7   1 H      0.924     0.097     1.816     2.108
   8   8 O      1.753    -0.211    17.497     5.648
   9   1 H      0.924     0.081     1.970     2.195
  10   1 H      0.924     0.048     2.340     2.392
  11   8 O      1.709    -0.313    19.227     5.920
  12   1 H      0.804     0.309     0.695     1.309

 Mol. C6AA /au·bohr⁶  :       1227.557494
 Mol. C8AA /au·bohr⁸  :      26109.840012
 Mol. α(0) /au        :         51.266256


Wiberg/Mayer (AO) data.
largest (>0.10) Wiberg bond orders for each atom
          total WBO             WBO to atom ...
     1  C   3.848        O    2 1.877    C    3 1.008    H    4 0.932
     2  O   2.008        C    1 1.877
     3  C   3.971        C    1 1.008    C    5 0.980    H    7 0.959    H    6 0.942
     4  H   0.984        C    1 0.932
     5  C   3.938        O    8 0.987    C    3 0.980    H   10 0.966    H    9 0.948
     6  H   0.990        C    3 0.942
     7  H   0.989        C    3 0.959
     8  O   2.019        C    5 0.987    O   11 0.970
     9  H   0.992        C    5 0.948
    10  H   0.995        C    5 0.966
    11  O   1.921        O    8 0.970    H   12 0.895
    12  H   0.904        O   11 0.895

molecular dipole:
                 x           y           z       tot (Debye)
 q only:       -1.441      -0.533      -0.988
   full:       -1.769      -0.737      -1.261       5.831
molecular quadrupole (traceless):
                xx          xy          yy          xz          yz          zz
 q only:       -1.588      -0.172       0.196      -5.059      -4.035       1.393
  q+dip:       -1.532       1.272       1.003      -6.868      -5.304       0.529
   full:       -1.510       0.272       0.955      -6.901      -5.365       0.555


           -------------------------------------------------
          | TOTAL ENERGY              -21.548143286976 Eh   |
          | GRADIENT NORM               0.093719956061 Eh/α |
          | HOMO-LUMO GAP               3.621789070107 eV   |
           -------------------------------------------------
           ------------------------------------------------- 
          |                  Meta Dynamics                  |
           ------------------------------------------------- 
 trajectories on xtb.trj or xtb.trj.<n>
 
 MD time /ps        :   50.00
 dt /fs             :    0.40
 SCC accuracy       :    2.00
 temperature /K     :  300.00
 max steps          :125000
 block length (av.) :  5000
 dumpstep(trj) /fs  :   10.00    25
 dumpstep(coords)/fs: 1000.00  2500
 H atoms mass (amu) :     2
 # deg. of freedom  :    36
 SHAKE off
 Berendsen THERMOSTAT on
kpush  :    0.050
alpha  :    0.300
update : 100
         time (ps)    <Epot>      Ekin   <T>   T     Etot
      0    0.00      0.00000   0.0428    0.    0.   -21.45539
est. speed in wall clock h for 100 ps :  1.06
    200    0.08    -21.39701   0.0476  557.  835.   -21.46444
    400    0.16    -21.45573   0.0446  711.  782.   -21.46720
    600    0.24    -21.48112   0.0576  829. 1011.   -21.47504
    800    0.32    -21.49278   0.0505  842.  886.   -21.47780
   1000    0.40    -21.49973   0.0313  831.  550.   -21.48443
   1200    0.48    -21.50413   0.0400  809.  701.   -21.48825
   1400    0.56    -21.50701   0.0347  780.  610.   -21.49200
   1600    0.64    -21.50972   0.0336  761.  590.   -21.49456
   1800    0.72    -21.51235   0.0284  750.  497.   -21.49721
   2000    0.80    -21.51398   0.0229  727.  403.   -21.50121
   2200    0.88    -21.51586   0.0327  715.  573.   -21.50225
   2400    0.96    -21.51739   0.0242  701.  425.   -21.50533
   2600    1.04    -21.51771   0.0329  687.  577.   -21.46448
   2800    1.12    -21.51702   0.0580  695. 1017.   -21.46450
   3000    1.20    -21.51721   0.0367  710.  644.   -21.46935
   3200    1.28    -21.51672   0.0197  707.  346.   -21.47294
   3400    1.36    -21.51622   0.0192  700.  337.   -21.47719
   3600    1.44    -21.51602   0.0505  695.  885.   -21.47929
   3800    1.52    -21.51636   0.0324  697.  568.   -21.48336
   4000    1.60    -21.51669   0.0299  695.  524.   -21.48616
   4200    1.68    -21.51713   0.0442  694.  775.   -21.48986
   4400    1.76    -21.51756   0.0289  691.  507.   -21.49242
   4600    1.84    -21.51791   0.0302  685.  529.   -21.49527
   4800    1.92    -21.51820   0.0183  677.  321.   -21.49677
block <Epot> / <T> :     -21.52282  670.     drift:  0.99D+02   Tbath : 300.
   5000    2.00    -21.51852   0.0270  670.  474.   -21.49844
   5200    2.08    -21.51754   0.0220  665.  386.   -21.45333
   5400    2.16    -21.51663   0.0413  665.  724.   -21.45657
   5600    2.24    -21.51571   0.0360  661.  632.   -21.45925
   5800    2.32    -21.51529   0.0385  664.  675.   -21.46395
   6000    2.40    -21.51525   0.0521  670.  914.   -21.46827
   6200    2.48    -21.51498   0.0345  669.  605.   -21.47136
   6400    2.56    -21.51486   0.0394  669.  692.   -21.47534
   6600    2.64    -21.51472   0.0377  667.  662.   -21.47758
   6800    2.72    -21.51477   0.0405  667.  710.   -21.47955
   7000    2.80    -21.51484   0.0340  665.  597.   -21.48339
   7200    2.88    -21.51501   0.0358  664.  628.   -21.48666
   7400    2.96    -21.51526   0.0291  663.  510.   -21.48975
   7600    3.04    -21.51496   0.0442  658.  775.   -21.44901
   7800    3.12    -21.51449   0.0488  663.  857.   -21.44984
   8000    3.20    -21.51418   0.0555  669.  974.   -21.45458
   8200    3.28    -21.51403   0.0412  674.  722.   -21.45922
   8400    3.36    -21.51348   0.0290  670.  508.   -21.46154
   8600    3.44    -21.51303   0.0355  667.  623.   -21.46454
   8800    3.52    -21.51301   0.0402  670.  704.   -21.46897
   9000    3.60    -21.51287   0.0272  669.  478.   -21.47286
   9200    3.68    -21.51261   0.0285  665.  501.   -21.47379
   9400    3.76    -21.51234   0.0381  661.  669.   -21.47501
   9600    3.84    -21.51221   0.0200  658.  350.   -21.47693
   9800    3.92    -21.51196   0.0172  652.  302.   -21.47865
  10000    4.00    -21.51177   0.0236  648.  415.   -21.48000
block <Epot> / <T> :     -21.50502  625.     drift:  0.99D+02   Tbath : 300.
  10200    4.08    -21.51107   0.0330  646.  579.   -21.43626
  10400    4.16    -21.51048   0.0440  648.  771.   -21.43872
  10600    4.24    -21.50980   0.0292  647.  513.   -21.44151
  10800    4.32    -21.50907   0.0341  644.  598.   -21.44283
  11000    4.40    -21.50842   0.0374  641.  657.   -21.44598
  11200    4.48    -21.50789   0.0287  640.  503.   -21.44765
  11400    4.56    -21.50744   0.0365  639.  640.   -21.45084
  11600    4.64    -21.50735   0.0537  643.  943.   -21.45545
  11800    4.72    -21.50714   0.0325  643.  570.   -21.45841
  12000    4.80    -21.50691   0.0409  642.  718.   -21.46128
  12200    4.88    -21.50689   0.0352  643.  618.   -21.46586
  12400    4.96    -21.50666   0.0412  641.  723.   -21.46740
  12600    5.04    -21.50638   0.0328  640.  575.   -21.42801
  12800    5.12    -21.50551   0.0335  637.  588.   -21.42489
  13000    5.20    -21.50478   0.0358  636.  628.   -21.42631
  13200    5.28    -21.50434   0.0346  638.  608.   -21.43198
  13400    5.36    -21.50387   0.0264  639.  464.   -21.43664
  13600    5.44    -21.50326   0.0306  636.  537.   -21.43738
  13800    5.52    -21.50272   0.0371  634.  652.   -21.43805
  14000    5.60    -21.50236   0.0367  635.  644.   -21.44135
  14200    5.68    -21.50190   0.0112  632.  197.   -21.44331
  14400    5.76    -21.50149   0.0348  630.  611.   -21.44629
  14600    5.84    -21.50122   0.0261  630.  459.   -21.44892
  14800    5.92    -21.50083   0.0216  627.  379.   -21.44887
  15000    6.00    -21.50047   0.0220  624.  387.   -21.45005
block <Epot> / <T> :     -21.47784  578.     drift:  0.99D+02   Tbath : 300.
  15200    6.08    -21.49974   0.0332  623.  582.   -21.40660
  15400    6.16    -21.49908   0.0329  624.  576.   -21.40975
  15600    6.24    -21.49835   0.0231  623.  405.   -21.41141
  15800    6.32    -21.49760   0.0316  621.  554.   -21.41244
  16000    6.40    -21.49711   0.0525  623.  920.   -21.41740
  16200    6.48    -21.49664   0.0239  623.  419.   -21.42142
  16400    6.56    -21.49609   0.0312  622.  547.   -21.42382
  16600    6.64    -21.49566   0.0503  622.  883.   -21.42700
  16800    6.72    -21.49540   0.0320  624.  562.   -21.42999
  17000    6.80    -21.49496   0.0287  622.  503.   -21.43264
  17200    6.88    -21.49461   0.0355  621.  623.   -21.43485
  17400    6.96    -21.49435   0.0304  622.  533.   -21.43727
  17600    7.04    -21.49388   0.0272  620.  477.   -21.39643
  17800    7.12    -21.49317   0.0500  620.  877.   -21.39590
  18000    7.20    -21.49257   0.0517  621.  907.   -21.39881
  18200    7.28    -21.49196   0.0517  621.  908.   -21.40369
  18400    7.36    -21.49144   0.0381  622.  668.   -21.40583
  18600    7.44    -21.49096   0.0363  623.  637.   -21.41013
  18800    7.52    -21.49047   0.0421  623.  739.   -21.41372
  19000    7.60    -21.49004   0.0245  623.  429.   -21.41459
  19200    7.68    -21.48960   0.0357  622.  626.   -21.41867
  19400    7.76    -21.48920   0.0401  621.  703.   -21.42153
  19600    7.84    -21.48881   0.0276  620.  485.   -21.42321
  19800    7.92    -21.48850   0.0371  620.  651.   -21.42497
  20000    8.00    -21.48831   0.0446  621.  782.   -21.42894
block <Epot> / <T> :     -21.45183  612.     drift:  0.24D-01   Tbath : 300.
  20200    8.08    -21.48779   0.0325  622.  570.   -21.38725
  20400    8.16    -21.48717   0.0467  622.  819.   -21.38990
  20600    8.24    -21.48672   0.0323  624.  567.   -21.39582
  20800    8.32    -21.48623   0.0439  625.  770.   -21.39721
  21000    8.40    -21.48572   0.0343  625.  602.   -21.40118
  21200    8.48    -21.48523   0.0311  624.  545.   -21.40350
  21400    8.56    -21.48473   0.0341  623.  597.   -21.40517
  21600    8.64    -21.48429   0.0295  622.  517.   -21.40766
  21800    8.72    -21.48385   0.0305  621.  536.   -21.40895
  22000    8.80    -21.48351   0.0410  621.  719.   -21.41158
  22200    8.88    -21.48318   0.0244  620.  429.   -21.41473
  22400    8.96    -21.48285   0.0274  620.  481.   -21.41665
  22600    9.04    -21.48242   0.0275  619.  483.   -21.37755
  22800    9.12    -21.48173   0.0195  618.  343.   -21.37480
  23000    9.20    -21.48108   0.0404  617.  708.   -21.37893
  23200    9.28    -21.48055   0.0270  618.  474.   -21.38112
  23400    9.36    -21.47997   0.0234  617.  411.   -21.38481
  23600    9.44    -21.47944   0.0400  617.  701.   -21.38650
  23800    9.52    -21.47899   0.0370  617.  649.   -21.38870
  24000    9.60    -21.47858   0.0446  618.  782.   -21.39344
  24200    9.68    -21.47820   0.0318  618.  557.   -21.39716
  24400    9.76    -21.47787   0.0418  619.  734.   -21.40085
  24600    9.84    -21.47755   0.0352  619.  618.   -21.40260
  24800    9.92    -21.47722   0.0263  619.  461.   -21.40583
  25000   10.00    -21.47692   0.0382  618.  669.   -21.40904
block <Epot> / <T> :     -21.43134  607.     drift:  0.25D-01   Tbath : 300.
  25200   10.08    -21.47640   0.0500  619.  877.   -21.36352
  25400   10.16    -21.47587   0.0495  620.  869.   -21.36753
  25600   10.24    -21.47531   0.0445  619.  780.   -21.37202
  25800   10.32    -21.47481   0.0454  620.  797.   -21.37480
  26000   10.40    -21.47429   0.0268  619.  470.   -21.37602
  26200   10.48    -21.47378   0.0259  618.  454.   -21.38091
  26400   10.56    -21.47330   0.0346  618.  607.   -21.38098
  26600   10.64    -21.47282   0.0266  617.  467.   -21.38326
  26800   10.72    -21.47237   0.0254  616.  446.   -21.38339
  27000   10.80    -21.47193   0.0277  615.  485.   -21.38619
  27200   10.88    -21.47150   0.0318  614.  559.   -21.38612
  27400   10.96    -21.47107   0.0183  612.  321.   -21.38836
  27600   11.04    -21.47057   0.0281  611.  494.   -21.34791
  27800   11.12    -21.46995   0.0445  612.  781.   -21.34608
  28000   11.20    -21.46947   0.0529  614.  929.   -21.35204
  28200   11.28    -21.46899   0.0621  616. 1089.   -21.35717
  28400   11.36    -21.46850   0.0319  616.  559.   -21.35984
  28600   11.44    -21.46806   0.0448  617.  787.   -21.36453
  28800   11.52    -21.46765   0.0286  618.  502.   -21.36900
  29000   11.60    -21.46718   0.0326  617.  572.   -21.37104
  29200   11.68    -21.46679   0.0349  618.  611.   -21.37479
  29400   11.76    -21.46643   0.0311  618.  546.   -21.37720
  29600   11.84    -21.46609   0.0359  618.  630.   -21.37963
  29800   11.92    -21.46575   0.0358  618.  628.   -21.38417
  30000   12.00    -21.46541   0.0368  617.  646.   -21.38541
block <Epot> / <T> :     -21.40784  611.     drift:  0.23D-01   Tbath : 300.
  30200   12.08    -21.46489   0.0300  617.  527.   -21.34225
  30400   12.16    -21.46436   0.0365  618.  640.   -21.34598
  30600   12.24    -21.46385   0.0373  618.  655.   -21.34948
  30800   12.32    -21.46336   0.0453  618.  794.   -21.35224
  31000   12.40    -21.46289   0.0353  619.  618.   -21.35551
  31200   12.48    -21.46245   0.0297  619.  522.   -21.35818
  31400   12.56    -21.46203   0.0444  619.  780.   -21.36151
  31600   12.64    -21.46165   0.0388  619.  681.   -21.36464
  31800   12.72    -21.46126   0.0387  619.  679.   -21.36655
  32000   12.80    -21.46093   0.0340  619.  597.   -21.37013
  32200   12.88    -21.46055   0.0298  619.  522.   -21.37363
  32400   12.96    -21.46016   0.0314  617.  551.   -21.37463
  32600   13.04    -21.45978   0.0517  617.  907.   -21.33777
  32800   13.12    -21.45931   0.0534  618.  937.   -21.33706
  33000   13.20    -21.45889   0.0519  620.  910.   -21.34240
  33200   13.28    -21.45847   0.0431  621.  756.   -21.34604
  33400   13.36    -21.45799   0.0338  620.  592.   -21.34804
  33600   13.44    -21.45753   0.0336  620.  590.   -21.35213
  33800   13.52    -21.45711   0.0356  619.  625.   -21.35419
  34000   13.60    -21.45667   0.0311  619.  546.   -21.35690
  34200   13.68    -21.45628   0.0260  618.  456.   -21.35954
  34400   13.76    -21.45591   0.0295  618.  517.   -21.36166
  34600   13.84    -21.45554   0.0233  618.  409.   -21.36373
  34800   13.92    -21.45515   0.0299  617.  525.   -21.36458
  35000   14.00    -21.45479   0.0226  616.  396.   -21.36528
block <Epot> / <T> :     -21.39101  606.     drift:  0.21D-01   Tbath : 300.
  35200   14.08    -21.45427   0.0377  615.  662.   -21.32158
  35400   14.16    -21.45381   0.0389  616.  682.   -21.32626
  35600   14.24    -21.45333   0.0429  617.  752.   -21.33118
  35800   14.32    -21.45292   0.0434  618.  762.   -21.33576
  36000   14.40    -21.45245   0.0224  618.  393.   -21.33722
  36200   14.48    -21.45198   0.0299  617.  524.   -21.33882
  36400   14.56    -21.45152   0.0362  616.  635.   -21.34050
  36600   14.64    -21.45107   0.0312  615.  547.   -21.34258
  36800   14.72    -21.45067   0.0381  615.  668.   -21.34553
  37000   14.80    -21.45032   0.0281  616.  493.   -21.34916
  37200   14.88    -21.44994   0.0269  615.  472.   -21.35215
  37400   14.96    -21.44956   0.0263  614.  461.   -21.35261
  37600   15.04    -21.44918   0.0388  614.  681.   -21.31567
  37800   15.12    -21.44866   0.0513  615.  901.   -21.31250
  38000   15.20    -21.44819   0.0309  616.  542.   -21.31772
  38200   15.28    -21.44770   0.0474  616.  832.   -21.32039
  38400   15.36    -21.44725   0.0295  616.  517.   -21.32456
  38600   15.44    -21.44681   0.0331  616.  581.   -21.32609
  38800   15.52    -21.44635   0.0417  615.  731.   -21.32870
  39000   15.60    -21.44592   0.0330  615.  578.   -21.33107
  39200   15.68    -21.44551   0.0292  615.  512.   -21.33414
  39400   15.76    -21.44509   0.0273  614.  478.   -21.33489
  39600   15.84    -21.44466   0.0232  614.  407.   -21.33754
  39800   15.92    -21.44424   0.0204  613.  357.   -21.33725
  40000   16.00    -21.44385   0.0254  612.  446.   -21.33987
block <Epot> / <T> :     -21.36727  585.     drift:  0.21D-01   Tbath : 300.
  40200   16.08    -21.44332   0.0383  611.  672.   -21.29487
  40400   16.16    -21.44284   0.0510  612.  894.   -21.30150
  40600   16.24    -21.44237   0.0456  613.  800.   -21.30488
  40800   16.32    -21.44187   0.0322  613.  565.   -21.30830
  41000   16.40    -21.44139   0.0295  613.  518.   -21.31078
  41200   16.48    -21.44091   0.0315  613.  553.   -21.31212
  41400   16.56    -21.44046   0.0441  613.  774.   -21.31570
  41600   16.64    -21.44002   0.0280  612.  490.   -21.31737
  41800   16.72    -21.43958   0.0271  612.  475.   -21.32062
  42000   16.80    -21.43919   0.0390  612.  684.   -21.32357
  42200   16.88    -21.43881   0.0393  612.  689.   -21.32626
  42400   16.96    -21.43843   0.0229  612.  403.   -21.32832
  42600   17.04    -21.43797   0.0358  611.  628.   -21.28862
  42800   17.12    -21.43747   0.0431  611.  756.   -21.28626
  43000   17.20    -21.43693   0.0372  611.  653.   -21.28926
  43200   17.28    -21.43641   0.0389  611.  682.   -21.29189
  43400   17.36    -21.43593   0.0365  612.  640.   -21.29427
  43600   17.44    -21.43546   0.0262  612.  460.   -21.29820
  43800   17.52    -21.43497   0.0321  611.  563.   -21.30171
  44000   17.60    -21.43455   0.0410  612.  719.   -21.30467
  44200   17.68    -21.43414   0.0398  612.  699.   -21.30672
  44400   17.76    -21.43370   0.0251  611.  441.   -21.30993
  44600   17.84    -21.43326   0.0288  611.  505.   -21.31114
  44800   17.92    -21.43285   0.0392  610.  687.   -21.31324
  45000   18.00    -21.43248   0.0289  610.  507.   -21.31565
block <Epot> / <T> :     -21.34147  598.     drift:  0.22D-01   Tbath : 300.
  45200   18.08    -21.43195   0.0326  610.  573.   -21.26841
  45400   18.16    -21.43137   0.0390  610.  684.   -21.27131
  45600   18.24    -21.43080   0.0242  609.  424.   -21.27453
  45800   18.32    -21.43032   0.0609  610. 1068.   -21.27942
  46000   18.40    -21.42986   0.0340  610.  596.   -21.28237
  46200   18.48    -21.42938   0.0362  611.  635.   -21.28644
  46400   18.56    -21.42894   0.0496  611.  871.   -21.29035
  46600   18.64    -21.42853   0.0271  611.  476.   -21.29357
  46800   18.72    -21.42810   0.0369  611.  647.   -21.29627
  47000   18.80    -21.42768   0.0337  611.  592.   -21.29806
  47200   18.88    -21.42726   0.0478  611.  838.   -21.30065
  47400   18.96    -21.42692   0.0373  611.  655.   -21.30529
  47600   19.04    -21.42651   0.0359  611.  630.   -21.26791
  47800   19.12    -21.42602   0.0442  612.  775.   -21.26674
  48000   19.20    -21.42556   0.0218  613.  383.   -21.27114
  48200   19.28    -21.42504   0.0129  612.  226.   -21.27308
  48400   19.36    -21.42452   0.0393  612.  690.   -21.27496
  48600   19.44    -21.42410   0.0407  612.  714.   -21.27907
  48800   19.52    -21.42365   0.0388  612.  681.   -21.28226
  49000   19.60    -21.42324   0.0509  613.  893.   -21.28539
  49200   19.68    -21.42284   0.0308  613.  540.   -21.28855
  49400   19.76    -21.42247   0.0390  613.  685.   -21.29239
  49600   19.84    -21.42210   0.0379  613.  664.   -21.29603
  49800   19.92    -21.42172   0.0277  613.  486.   -21.29822
  50000   20.00    -21.42140   0.0659  613. 1156.   -21.30226
block <Epot> / <T> :     -21.32168  642.     drift:  0.23D-01   Tbath : 300.
  50200   20.08    -21.42100   0.0576  614. 1010.   -21.26230
  50400   20.16    -21.42060   0.0482  616.  845.   -21.26762
  50600   20.24    -21.42013   0.0416  615.  729.   -21.27187
  50800   20.32    -21.41971   0.0468  616.  822.   -21.27408
  51000   20.40    -21.41929   0.0418  616.  733.   -21.27775
  51200   20.48    -21.41891   0.0403  616.  706.   -21.28232
  51400   20.56    -21.41852   0.0260  616.  456.   -21.28537
  51600   20.64    -21.41812   0.0364  616.  639.   -21.28813
  51800   20.72    -21.41778   0.0290  616.  508.   -21.29091
  52000   20.80    -21.41741   0.0276  616.  484.   -21.29377
  52200   20.88    -21.41705   0.0347  616.  609.   -21.29598
  52400   20.96    -21.41671   0.0297  615.  520.   -21.29696
  52600   21.04    -21.41631   0.0304  615.  534.   -21.25804
  52800   21.12    -21.41582   0.0277  614.  486.   -21.25404
  53000   21.20    -21.41534   0.0287  614.  504.   -21.25560
  53200   21.28    -21.41485   0.0332  614.  583.   -21.25784
  53400   21.36    -21.41442   0.0420  614.  737.   -21.26246
  53600   21.44    -21.41400   0.0324  614.  569.   -21.26667
  53800   21.52    -21.41360   0.0268  615.  470.   -21.26819
  54000   21.60    -21.41321   0.0422  615.  740.   -21.27367
  54200   21.68    -21.41281   0.0164  615.  288.   -21.27458
  54400   21.76    -21.41242   0.0423  614.  743.   -21.27714
  54600   21.84    -21.41207   0.0232  615.  407.   -21.28055
  54800   21.92    -21.41172   0.0306  614.  537.   -21.28214
  55000   22.00    -21.41137   0.0378  614.  663.   -21.28428
block <Epot> / <T> :     -21.31097  620.     drift:  0.19D-01   Tbath : 300.
  55200   22.08    -21.41092   0.0409  614.  718.   -21.24104
  55400   22.16    -21.41046   0.0514  614.  901.   -21.24469
  55600   22.24    -21.41001   0.0304  615.  534.   -21.24734
  55800   22.32    -21.40955   0.0265  614.  465.   -21.25085
  56000   22.40    -21.40910   0.0258  614.  453.   -21.25311
  56200   22.48    -21.40865   0.0338  614.  592.   -21.25449
  56400   22.56    -21.40824   0.0382  614.  670.   -21.25730
  56600   22.64    -21.40782   0.0244  614.  429.   -21.26048
  56800   22.72    -21.40741   0.0353  613.  620.   -21.26281
  57000   22.80    -21.40700   0.0282  613.  495.   -21.26412
  57200   22.88    -21.40662   0.0373  613.  654.   -21.26697
  57400   22.96    -21.40624   0.0288  613.  505.   -21.26904
  57600   23.04    -21.40582   0.0194  612.  341.   -21.23012
  57800   23.12    -21.40531   0.0500  612.  877.   -21.22524
  58000   23.20    -21.40488   0.0489  613.  857.   -21.23033
  58200   23.28    -21.40444   0.0351  614.  616.   -21.23426
  58400   23.36    -21.40401   0.0404  614.  708.   -21.23996
  58600   23.44    -21.40359   0.0414  614.  726.   -21.24206
  58800   23.52    -21.40315   0.0304  614.  534.   -21.24417
  59000   23.60    -21.40274   0.0372  614.  653.   -21.24783
  59200   23.68    -21.40234   0.0292  614.  512.   -21.25008
  59400   23.76    -21.40193   0.0331  614.  581.   -21.25265
  59600   23.84    -21.40154   0.0305  614.  535.   -21.25547
  59800   23.92    -21.40116   0.0291  613.  510.   -21.25711
  60000   24.00    -21.40078   0.0233  613.  408.   -21.26059
block <Epot> / <T> :     -21.28432  601.     drift:  0.18D-01   Tbath : 300.
  60200   24.08    -21.40033   0.0360  613.  631.   -21.21670
  60400   24.16    -21.39986   0.0433  613.  760.   -21.22154
  60600   24.24    -21.39940   0.0217  613.  381.   -21.22384
  60800   24.32    -21.39893   0.0377  613.  662.   -21.22769
  61000   24.40    -21.39849   0.0347  613.  609.   -21.22871
  61200   24.48    -21.39803   0.0309  613.  542.   -21.23050
  61400   24.56    -21.39760   0.0346  613.  608.   -21.23373
  61600   24.64    -21.39718   0.0478  613.  838.   -21.23621
  61800   24.72    -21.39679   0.0267  613.  469.   -21.24066
  62000   24.80    -21.39639   0.0239  613.  419.   -21.24377
  62200   24.88    -21.39600   0.0375  612.  658.   -21.24309
  62400   24.96    -21.39562   0.0262  612.  460.   -21.24743
  62600   25.04    -21.39520   0.0327  612.  574.   -21.20907
  62800   25.12    -21.39469   0.0321  612.  563.   -21.20468
  63000   25.20    -21.39422   0.0451  612.  791.   -21.20747
  63200   25.28    -21.39379   0.0423  613.  742.   -21.21128
  63400   25.36    -21.39334   0.0515  613.  903.   -21.21554
  63600   25.44    -21.39289   0.0304  613.  534.   -21.21847
  63800   25.52    -21.39246   0.0369  613.  648.   -21.22378
  64000   25.60    -21.39204   0.0284  613.  498.   -21.22324
  64200   25.68    -21.39163   0.0531  613.  932.   -21.22644
  64400   25.76    -21.39124   0.0307  613.  538.   -21.22940
  64600   25.84    -21.39084   0.0301  613.  529.   -21.23314
  64800   25.92    -21.39046   0.0267  612.  469.   -21.23490
  65000   26.00    -21.39006   0.0242  612.  424.   -21.23652
block <Epot> / <T> :     -21.26133  599.     drift:  0.21D-01   Tbath : 300.
  65200   26.08    -21.38959   0.0267  612.  468.   -21.19272
  65400   26.16    -21.38910   0.0387  612.  678.   -21.19612
  65600   26.24    -21.38866   0.0417  612.  732.   -21.19962
  65800   26.32    -21.38821   0.0423  612.  742.   -21.20525
  66000   26.40    -21.38778   0.0352  613.  618.   -21.20825
  66200   26.48    -21.38732   0.0154  612.  270.   -21.20953
  66400   26.56    -21.38689   0.0374  612.  656.   -21.21000
  66600   26.64    -21.38647   0.0284  612.  499.   -21.21362
  66800   26.72    -21.38605   0.0301  612.  528.   -21.21757
  67000   26.80    -21.38564   0.0247  612.  432.   -21.21904
  67200   26.88    -21.38522   0.0229  611.  401.   -21.21967
  67400   26.96    -21.38480   0.0334  611.  586.   -21.22071
  67600   27.04    -21.38437   0.0282  610.  495.   -21.18411
  67800   27.12    -21.38385   0.0405  610.  710.   -21.17805
  68000   27.20    -21.38340   0.0583  611. 1023.   -21.18202
  68200   27.28    -21.38293   0.0308  611.  539.   -21.18538
  68400   27.36    -21.38250   0.0516  612.  905.   -21.19088
  68600   27.44    -21.38212   0.0486  613.  852.   -21.19833
  68800   27.52    -21.38173   0.0406  613.  713.   -21.20451
  69000   27.60    -21.38133   0.0366  614.  643.   -21.20648
  69200   27.68    -21.38094   0.0485  614.  851.   -21.21054
  69400   27.76    -21.38057   0.0456  614.  800.   -21.21358
  69600   27.84    -21.38022   0.0226  615.  397.   -21.21894
  69800   27.92    -21.37984   0.0372  614.  652.   -21.22039
  70000   28.00    -21.37951   0.0484  615.  850.   -21.22346
block <Epot> / <T> :     -21.24240  650.     drift:  0.23D-01   Tbath : 300.
  70200   28.08    -21.37909   0.0383  615.  672.   -21.18041
  70400   28.16    -21.37864   0.0579  615. 1016.   -21.18386
  70600   28.24    -21.37822   0.0266  615.  466.   -21.18716
  70800   28.32    -21.37779   0.0281  615.  493.   -21.19110
  71000   28.40    -21.37738   0.0405  616.  711.   -21.19538
  71200   28.48    -21.37697   0.0350  616.  614.   -21.19703
  71400   28.56    -21.37656   0.0329  615.  578.   -21.19946
  71600   28.64    -21.37616   0.0368  615.  645.   -21.20338
  71800   28.72    -21.37578   0.0327  615.  574.   -21.20525
  72000   28.80    -21.37540   0.0309  615.  542.   -21.20858
  72200   28.88    -21.37502   0.0258  615.  452.   -21.21055
  72400   28.96    -21.37465   0.0273  615.  479.   -21.21178
  72600   29.04    -21.37426   0.0229  614.  402.   -21.17542
  72800   29.12    -21.37380   0.0509  614.  894.   -21.17104
  73000   29.20    -21.37340   0.0312  615.  548.   -21.17639
  73200   29.28    -21.37333   0.2522  621. 4424.   -21.19707
  73400   29.36    -21.37351   0.1965  630. 3446.   -21.23181
  73600   29.44    -21.37366   0.1333  637. 2339.   -21.25939
  73800   29.52    -21.37379   0.1105  642. 1939.   -21.29311
  74000   29.60    -21.37398   0.1165  648. 2043.   -21.30813
  74200   29.68    -21.37421   0.1398  653. 2453.   -21.32130
  74400   29.76    -21.37444   0.0812  657. 1425.   -21.34401
  74600   29.84    -21.37469   0.1393  660. 2444.   -21.35764
  74800   29.92    -21.37496   0.1065  663. 1868.   -21.37684
  75000   30.00    -21.37526   0.1231  667. 2160.   -21.38734
block <Epot> / <T> :     -21.31632 1395.     drift: -0.77D-02   Tbath : 300.
  75200   30.08    -21.37553   0.0846  670. 1485.   -21.35656
  75400   30.16    -21.37577   0.0782  672. 1372.   -21.37526
  75600   30.24    -21.37604   0.1049  675. 1841.   -21.39221
  75800   30.32    -21.37634   0.0789  678. 1384.   -21.40600
  76000   30.40    -21.37667   0.0890  680. 1562.   -21.41178
  76200   30.48    -21.37701   0.0591  682. 1037.   -21.42835
  76400   30.56    -21.37736   0.0625  684. 1096.   -21.43161
  76600   30.64    -21.37772   0.0683  686. 1198.   -21.44593
  76800   30.72    -21.37809   0.0640  687. 1123.   -21.45731
  77000   30.80    -21.37848   0.0742  688. 1301.   -21.46366
  77200   30.88    -21.37886   0.0481  689.  844.   -21.46867
  77400   30.96    -21.37926   0.0682  690. 1196.   -21.47636
  77600   31.04    -21.37962   0.0459  691.  806.   -21.44501
  77800   31.12    -21.37994   0.0781  691. 1370.   -21.44747
  78000   31.20    -21.38030   0.0688  693. 1206.   -21.45408
  78200   31.28    -21.38065   0.0406  694.  713.   -21.46287
  78400   31.36    -21.38099   0.0455  694.  798.   -21.46929
  78600   31.44    -21.38136   0.0537  695.  941.   -21.47364
  78800   31.52    -21.38174   0.0503  695.  882.   -21.47962
  79000   31.60    -21.38212   0.0511  696.  896.   -21.48567
  79200   31.68    -21.38250   0.0402  696.  706.   -21.48779
  79400   31.76    -21.38288   0.0440  696.  773.   -21.49454
  79600   31.84    -21.38325   0.0269  696.  471.   -21.49685
  79800   31.92    -21.38363   0.0414  696.  726.   -21.50137
  80000   32.00    -21.38401   0.0321  696.  563.   -21.50310
block <Epot> / <T> :     -21.51544 1129.     drift: -0.84D-01   Tbath : 300.
  80200   32.08    -21.38435   0.0511  696.  897.   -21.46373
  80400   32.16    -21.38469   0.0480  696.  843.   -21.47082
  80600   32.24    -21.38501   0.0543  697.  953.   -21.47461
  80800   32.32    -21.38536   0.0565  697.  991.   -21.48170
  81000   32.40    -21.38572   0.0467  697.  820.   -21.48643
  81200   32.48    -21.38607   0.0437  697.  766.   -21.48802
  81400   32.56    -21.38642   0.0417  697.  731.   -21.49050
  81600   32.64    -21.38679   0.0389  697.  682.   -21.49664
  81800   32.72    -21.38715   0.0323  697.  567.   -21.49961
  82000   32.80    -21.38750   0.0273  697.  478.   -21.50320
  82200   32.88    -21.38785   0.0313  696.  549.   -21.50355
  82400   32.96    -21.38822   0.0365  696.  640.   -21.50636
  82600   33.04    -21.38856   0.0305  696.  536.   -21.47248
  82800   33.12    -21.38886   0.0460  696.  807.   -21.47001
  83000   33.20    -21.38916   0.0443  696.  776.   -21.47373
  83200   33.28    -21.38948   0.0357  696.  626.   -21.47850
  83400   33.36    -21.38982   0.0452  697.  794.   -21.48264
  83600   33.44    -21.39016   0.0389  697.  683.   -21.48936
  83800   33.52    -21.39049   0.0318  697.  558.   -21.49216
  84000   33.60    -21.39082   0.0358  697.  628.   -21.49504
  84200   33.68    -21.39116   0.0412  697.  723.   -21.49941
  84400   33.76    -21.39151   0.0344  697.  604.   -21.50142
  84600   33.84    -21.39184   0.0231  696.  405.   -21.50563
  84800   33.92    -21.39217   0.0279  696.  489.   -21.50675
  85000   34.00    -21.39250   0.0267  695.  469.   -21.50665
block <Epot> / <T> :     -21.52826  683.     drift: -0.11D+00   Tbath : 300.
  85200   34.08    -21.39278   0.0524  695.  920.   -21.46653
  85400   34.16    -21.39311   0.0670  696. 1176.   -21.47187
  85600   34.24    -21.39345   0.0606  697. 1064.   -21.47936
  85800   34.32    -21.39378   0.0386  697.  678.   -21.48641
  86000   34.40    -21.39409   0.0467  697.  820.   -21.48909
  86200   34.48    -21.39443   0.0342  698.  599.   -21.49508
  86400   34.56    -21.39477   0.0359  698.  631.   -21.49942
  86600   34.64    -21.39508   0.0337  697.  592.   -21.50081
  86800   34.72    -21.39539   0.0267  697.  469.   -21.50452
  87000   34.80    -21.39572   0.0375  696.  658.   -21.50521
  87200   34.88    -21.39605   0.0395  696.  694.   -21.50829
  87400   34.96    -21.39638   0.0355  696.  623.   -21.51077
  87600   35.04    -21.39671   0.0370  696.  649.   -21.47880
  87800   35.12    -21.39698   0.0527  696.  925.   -21.47300
  88000   35.20    -21.39728   0.0535  696.  939.   -21.47802
  88200   35.28    -21.39758   0.0410  697.  720.   -21.48396
  88400   35.36    -21.39787   0.0487  697.  854.   -21.48835
  88600   35.44    -21.39819   0.0433  697.  759.   -21.49256
  88800   35.52    -21.39850   0.0380  697.  667.   -21.49729
  89000   35.60    -21.39880   0.0419  697.  734.   -21.49964
  89200   35.68    -21.39911   0.0332  697.  582.   -21.50348
  89400   35.76    -21.39941   0.0257  696.  450.   -21.50492
  89600   35.84    -21.39971   0.0287  696.  503.   -21.50699
  89800   35.92    -21.40001   0.0326  695.  573.   -21.50971
  90000   36.00    -21.40032   0.0275  695.  483.   -21.50997
block <Epot> / <T> :     -21.53338  695.     drift: -0.66D-01   Tbath : 300.
  90200   36.08    -21.40057   0.0463  695.  812.   -21.46602
  90400   36.16    -21.40084   0.0644  695. 1130.   -21.47134
  90600   36.24    -21.40113   0.0530  696.  930.   -21.47785
  90800   36.32    -21.40140   0.0334  696.  585.   -21.48315
  91000   36.40    -21.40167   0.0429  696.  753.   -21.48633
  91200   36.48    -21.40194   0.0356  696.  624.   -21.49140
  91400   36.56    -21.40221   0.0339  696.  596.   -21.49173
  91600   36.64    -21.40247   0.0248  695.  435.   -21.49574
  91800   36.72    -21.40274   0.0349  695.  612.   -21.49862
  92000   36.80    -21.40302   0.0283  694.  496.   -21.50020
  92200   36.88    -21.40329   0.0267  694.  468.   -21.50321
  92400   36.96    -21.40356   0.0227  693.  398.   -21.50171
  92600   37.04    -21.40382   0.0242  693.  424.   -21.46717
  92800   37.12    -21.40403   0.0573  693. 1006.   -21.46192
  93000   37.20    -21.40428   0.0537  694.  941.   -21.46890
  93200   37.28    -21.40453   0.0455  694.  799.   -21.47268
  93400   37.36    -21.40478   0.0449  694.  788.   -21.47811
  93600   37.44    -21.40501   0.0303  694.  532.   -21.48084
  93800   37.52    -21.40525   0.0361  694.  634.   -21.48390
  94000   37.60    -21.40552   0.0307  694.  538.   -21.48738
  94200   37.68    -21.40578   0.0322  694.  565.   -21.49271
  94400   37.76    -21.40603   0.0274  694.  481.   -21.49384
  94600   37.84    -21.40628   0.0261  693.  458.   -21.49695
  94800   37.92    -21.40654   0.0385  693.  676.   -21.49822
  95000   38.00    -21.40683   0.0318  693.  557.   -21.50305
block <Epot> / <T> :     -21.52386  661.     drift: -0.30D-02   Tbath : 300.
  95200   38.08    -21.40706   0.0505  693.  886.   -21.46388
  95400   38.16    -21.40730   0.0523  694.  917.   -21.46827
  95600   38.24    -21.40754   0.0403  694.  706.   -21.47544
  95800   38.32    -21.40779   0.0493  695.  866.   -21.48100
  96000   38.40    -21.40802   0.0395  694.  693.   -21.48267
  96200   38.48    -21.40826   0.0406  694.  713.   -21.48764
  96400   38.56    -21.40851   0.0463  694.  813.   -21.48980
  96600   38.64    -21.40876   0.0284  694.  498.   -21.49299
  96800   38.72    -21.40899   0.0206  694.  361.   -21.49426
  97000   38.80    -21.40922   0.0236  693.  414.   -21.49563
  97200   38.88    -21.40945   0.0200  693.  350.   -21.49779
  97400   38.96    -21.40970   0.0314  692.  550.   -21.50074
  97600   39.04    -21.40994   0.0419  692.  735.   -21.46977
  97800   39.12    -21.41015   0.0523  692.  917.   -21.46218
  98000   39.20    -21.41038   0.0562  693.  985.   -21.46967
  98200   39.28    -21.41063   0.0556  694.  975.   -21.47665
  98400   39.36    -21.41087   0.0319  694.  559.   -21.48280
  98600   39.44    -21.41109   0.0394  694.  691.   -21.48622
  98800   39.52    -21.41132   0.0345  694.  606.   -21.48988
  99000   39.60    -21.41154   0.0310  694.  544.   -21.49187
  99200   39.68    -21.41177   0.0285  693.  501.   -21.49370
  99400   39.76    -21.41200   0.0302  693.  531.   -21.49657
  99600   39.84    -21.41222   0.0256  692.  450.   -21.49623
  99800   39.92    -21.41245   0.0241  692.  423.   -21.50002
 100000   40.00    -21.41267   0.0275  692.  482.   -21.50028
block <Epot> / <T> :     -21.52373  660.     drift:  0.23D-02   Tbath : 300.
 100200   40.08    -21.41286   0.0496  691.  870.   -21.46020
 100400   40.16    -21.41305   0.0471  692.  826.   -21.46461
 100600   40.24    -21.41326   0.0475  692.  834.   -21.46865
 100800   40.32    -21.41347   0.0443  692.  778.   -21.47391
 101000   40.40    -21.41365   0.0377  692.  661.   -21.47743
 101200   40.48    -21.41385   0.0356  692.  625.   -21.47946
 101400   40.56    -21.41406   0.0488  692.  856.   -21.48355
 101600   40.64    -21.41428   0.0469  692.  823.   -21.48755
 101800   40.72    -21.41451   0.0360  692.  632.   -21.49240
 102000   40.80    -21.41473   0.0337  692.  592.   -21.49494
 102200   40.88    -21.41495   0.0277  691.  486.   -21.49530
 102400   40.96    -21.41517   0.0281  691.  492.   -21.49714
 102600   41.04    -21.41538   0.0235  691.  412.   -21.46832
 102800   41.12    -21.41556   0.0445  691.  780.   -21.46262
 103000   41.20    -21.41575   0.0405  691.  711.   -21.46749
 103200   41.28    -21.41593   0.0430  691.  755.   -21.47028
 103400   41.36    -21.41611   0.0344  691.  604.   -21.47385
 103600   41.44    -21.41630   0.0341  691.  598.   -21.47755
 103800   41.52    -21.41648   0.0301  691.  528.   -21.47942
 104000   41.60    -21.41665   0.0360  691.  632.   -21.48098
 104200   41.68    -21.41684   0.0305  690.  534.   -21.48284
 104400   41.76    -21.41703   0.0346  690.  607.   -21.48664
 104600   41.84    -21.41721   0.0213  689.  374.   -21.48667
 104800   41.92    -21.41739   0.0240  689.  421.   -21.48907
 105000   42.00    -21.41758   0.0264  688.  464.   -21.49006
block <Epot> / <T> :     -21.51556  627.     drift:  0.54D-02   Tbath : 300.
 105200   42.08    -21.41771   0.0327  688.  573.   -21.44301
 105400   42.16    -21.41787   0.0566  688.  994.   -21.45020
 105600   42.24    -21.41803   0.0459  689.  806.   -21.45535
 105800   42.32    -21.41821   0.0551  689.  967.   -21.46185
 106000   42.40    -21.41840   0.0390  690.  684.   -21.46818
 106200   42.48    -21.41858   0.0429  690.  753.   -21.47162
 106400   42.56    -21.41876   0.0375  690.  658.   -21.47700
 106600   42.64    -21.41895   0.0372  690.  653.   -21.48037
 106800   42.72    -21.41914   0.0287  690.  504.   -21.48344
 107000   42.80    -21.41932   0.0273  690.  479.   -21.48699
 107200   42.88    -21.41950   0.0326  689.  571.   -21.48723
 107400   42.96    -21.41968   0.0296  689.  520.   -21.49091
 107600   43.04    -21.41985   0.0284  689.  499.   -21.45898
 107800   43.12    -21.42000   0.0590  689. 1035.   -21.45225
 108000   43.20    -21.42018   0.0610  690. 1070.   -21.45996
 108200   43.28    -21.42034   0.0410  690.  719.   -21.46267
 108400   43.36    -21.42050   0.0422  690.  741.   -21.46902
 108600   43.44    -21.42069   0.0453  690.  795.   -21.47406
 108800   43.52    -21.42087   0.0360  691.  632.   -21.47759
 109000   43.60    -21.42104   0.0383  690.  672.   -21.48202
 109200   43.68    -21.42121   0.0292  690.  513.   -21.48305
 109400   43.76    -21.42137   0.0227  690.  398.   -21.48453
 109600   43.84    -21.42154   0.0400  689.  702.   -21.48660
 109800   43.92    -21.42172   0.0283  689.  497.   -21.48935
 110000   44.00    -21.42190   0.0394  689.  691.   -21.49134
block <Epot> / <T> :     -21.51286  696.     drift:  0.41D-02   Tbath : 300.
 110200   44.08    -21.42204   0.0324  689.  568.   -21.45121
 110400   44.16    -21.42216   0.0351  688.  615.   -21.45260
 110600   44.24    -21.42231   0.0509  689.  894.   -21.45932
 110800   44.32    -21.42247   0.0348  689.  611.   -21.46332
 111000   44.40    -21.42263   0.0471  689.  826.   -21.46926
 111200   44.48    -21.42280   0.0467  689.  820.   -21.47190
 111400   44.56    -21.42297   0.0396  689.  694.   -21.47918
 111600   44.64    -21.42315   0.0250  689.  438.   -21.48288
 111800   44.72    -21.42333   0.0461  689.  809.   -21.48638
 112000   44.80    -21.42351   0.0430  689.  755.   -21.48980
 112200   44.88    -21.42369   0.0404  689.  709.   -21.49309
 112400   44.96    -21.42388   0.0263  689.  461.   -21.49560
 112600   45.04    -21.42405   0.0316  689.  555.   -21.46565
 112800   45.12    -21.42418   0.0492  689.  862.   -21.45759
 113000   45.20    -21.42435   0.0556  689.  976.   -21.46358
 113200   45.28    -21.42453   0.0702  690. 1231.   -21.47007
 113400   45.36    -21.42472   0.0534  691.  936.   -21.47748
 113600   45.44    -21.42489   0.0306  691.  537.   -21.48013
 113800   45.52    -21.42504   0.0382  690.  669.   -21.48547
 114000   45.60    -21.42520   0.0234  690.  411.   -21.48656
 114200   45.68    -21.42537   0.0320  690.  562.   -21.48883
 114400   45.76    -21.42554   0.0399  690.  700.   -21.49152
 114600   45.84    -21.42573   0.0471  690.  827.   -21.49551
 114800   45.92    -21.42592   0.0342  690.  599.   -21.49940
 115000   46.00    -21.42610   0.0208  689.  365.   -21.50038
block <Epot> / <T> :     -21.51841  702.     drift:  0.19D-02   Tbath : 300.
 115200   46.08    -21.42623   0.0364  689.  638.   -21.45710
 115400   46.16    -21.42635   0.0576  689. 1010.   -21.45972
 115600   46.24    -21.42651   0.0531  689.  931.   -21.46561
 115800   46.32    -21.42668   0.0573  690. 1005.   -21.47324
 116000   46.40    -21.42685   0.0456  690.  800.   -21.47587
 116200   46.48    -21.42700   0.0408  690.  716.   -21.48092
 116400   46.56    -21.42715   0.0253  690.  443.   -21.48283
 116600   46.64    -21.42730   0.0317  690.  557.   -21.48376
 116800   46.72    -21.42745   0.0331  689.  580.   -21.48836
 117000   46.80    -21.42762   0.0368  689.  646.   -21.48912
 117200   46.88    -21.42779   0.0321  689.  564.   -21.49382
 117400   46.96    -21.42796   0.0342  689.  600.   -21.49611
 117600   47.04    -21.42812   0.0272  689.  476.   -21.46733
 117800   47.12    -21.42824   0.0386  689.  678.   -21.45665
 118000   47.20    -21.42836   0.0442  689.  776.   -21.46157
 118200   47.28    -21.42850   0.0464  689.  815.   -21.46697
 118400   47.36    -21.42865   0.0363  689.  636.   -21.47169
 118600   47.44    -21.42878   0.0407  689.  713.   -21.47365
 118800   47.52    -21.42893   0.0409  689.  717.   -21.47750
 119000   47.60    -21.42909   0.0368  689.  646.   -21.48164
 119200   47.68    -21.42924   0.0342  689.  600.   -21.48604
 119400   47.76    -21.42939   0.0348  689.  610.   -21.48775
 119600   47.84    -21.42953   0.0272  688.  478.   -21.48808
 119800   47.92    -21.42968   0.0301  688.  528.   -21.49050
 120000   48.00    -21.42982   0.0304  688.  533.   -21.49146
block <Epot> / <T> :     -21.51536  647.     drift: -0.49D-03   Tbath : 300.
 120200   48.08    -21.42994   0.0397  687.  697.   -21.44956
 120400   48.16    -21.43005   0.0375  688.  659.   -21.45592
 120600   48.24    -21.43018   0.0441  688.  774.   -21.46034
 120800   48.32    -21.43031   0.0439  688.  771.   -21.46515
 121000   48.40    -21.43044   0.0385  688.  675.   -21.46973
 121200   48.48    -21.43057   0.0440  688.  773.   -21.47542
 121400   48.56    -21.43071   0.0340  688.  597.   -21.47599
 121600   48.64    -21.43083   0.0385  688.  676.   -21.47762
 121800   48.72    -21.43097   0.0328  688.  575.   -21.48070
 122000   48.80    -21.43111   0.0270  687.  474.   -21.48386
 122200   48.88    -21.43125   0.0259  687.  455.   -21.48558
 122400   48.96    -21.43138   0.0249  687.  437.   -21.48803
 122600   49.04    -21.43152   0.0333  687.  584.   -21.46049
 122800   49.12    -21.43160   0.0438  686.  768.   -21.44778
 123000   49.20    -21.43170   0.0399  686.  699.   -21.45251
 123200   49.28    -21.43179   0.0310  686.  544.   -21.45480
 123400   49.36    -21.43188   0.0284  686.  499.   -21.45858
 123600   49.44    -21.43198   0.0305  686.  535.   -21.46128
 123800   49.52    -21.43209   0.0401  686.  704.   -21.46411
 124000   49.60    -21.43220   0.0443  686.  778.   -21.46888
 124200   49.68    -21.43232   0.0368  686.  646.   -21.47069
 124400   49.76    -21.43243   0.0356  685.  624.   -21.47144
 124600   49.84    -21.43254   0.0235  685.  413.   -21.47659
 124800   49.92    -21.43266   0.0193  685.  338.   -21.47679
 average properties 
 Epot               :  -21.4327669164416     
 Epot (accurate SCC):  -21.4329021526278     
 Ekin               :  3.901368683464201E-002
 Etot               :  -21.3937532296070     
 T                  :   684.419974435195     
 thermostating problem
 normal exit of md()

------------------------------------------------------------------------
 * finished run on 2021/03/15 at 00:22:11.944     
------------------------------------------------------------------------
 total:
 * wall-time:     0 d,  0 h, 25 min,  3.407 sec
 *  cpu-time:     0 d,  0 h, 24 min, 41.720 sec
 * ratio c/w:     0.986 speedup
 SCF:
 * wall-time:     0 d,  0 h,  0 min,  0.706 sec
 *  cpu-time:     0 d,  0 h,  0 min,  0.032 sec
 * ratio c/w:     0.045 speedup
 MD:
 * wall-time:     0 d,  0 h, 25 min,  1.439 sec
 *  cpu-time:     0 d,  0 h, 24 min, 41.656 sec
 * ratio c/w:     0.987 speedup

