      -----------------------------------------------------------      
     |                   =====================                   |     
     |                           x T B                           |     
     |                   =====================                   |     
     |                         S. Grimme                         |     
     |          Mulliken Center for Theoretical Chemistry        |     
     |                    University of Bonn                     |     
     |                 Version 6.1.4 (SAW190525)                 |     
      -----------------------------------------------------------      

   This program is distributed in the hope that it will be useful,
   but WITHOUT ANY WARRANTY; without even the implied warranty of
   MERCHANTABILITY or FITNESS FOR A PARTICULAR PURPOSE.
   
   FOR NON-COMMERCIAL, ACADEMIA USE ONLY.
   
   Cite this work as:
   S. Grimme, C. Bannwarth, P. Shushkov, J. Comput. Theory Chem., 2017,
   13, 1989-2009. DOI: 10.1021/acs.jctc.7b00118
   C. Bannwarth, S. Ehlert and S. Grimme., J. Comput. Theory Chem., 2019,
   just accepted. DOI: 10.1021/acs.jctc.8b01176
   
   for sTDA-xTB:
   S. Grimme and C. Bannwarth, J. Chem. Phys., 2016, 145, 054103.
   DOI: 10.1063/1.4959605
   
   in the mass-spec context:
   V. Asgeirsson, C. Bauer and S. Grimme, Chem. Sci., 2017, 8, 4879.
   DOI: 10.1039/c7sc00601b
   
   for metadynamics refer to:
   S. Grimme, J. Chem. Theory Comput. Article ASAP, 2019,
   DOI: 10.1021/acs.jctc.9b00143
   
   with help from (in alphabetical order)
   C. Bannwarth, F. Bohle, G. Brandenburg, E. Caldeweyher, M. Checinski,
   S. Dohm, S. Ehlert, S. Ehrlich, F. März, H. Neugebauer, J. Pisarek,
   P. Pracht, P. Shushkov, and S. Spicher.
   
 * started run on 2021/03/14 at 23:57:08.625     

           -------------------------------------------------
          |                Calculation Setup                |
           -------------------------------------------------

          program call               : /opt/xtb/6.1/xtb-190527/bin/xtb 0.8_md.xyz --md --input metadyn.inp --gfn 2
          hostname                   : mnode007
          coordinate file            : 0.8_md.xyz
          omp threads                :                     1
          number of atoms            :                    12
          number of electrons        :                    36
          charge                     :                     0
          spin                       :                   0.0
          first test random number   :      0.18369802023020

spherical wallpotenial with radius    3.6488561 Å

########################################################################
# WARNING! Please study the warnings concerning your input carefully
#  - XTBPATH is not set, using XTBHOME instead
########################################################################

           ------------------------------------------------- 
          |                 G F N 2 - x T B                 |
          | Geometry, Frequencies, Noncovalent interactions |
          |            JCTC 2018 parametrisation            |
           ------------------------------------------------- 
             k(s)              :                1.8500
             k(p)              :                2.2300
             k(d)              :                2.2300
             k(f)              :                2.0000
             kEN (H0ij)        :               -2.0000
             D4 a1             :                0.5200
             D4 a2             :                5.0000
             D4 s6             :                1.0000
             D4 s8             :                2.7000
             D4 s9             :                5.0000
             alphaj            :                2.0000

  Z AO/shell   Hii/eV     exponent
  1     Wed Apr 25 08:07:45 CEST 2018   EN: 2.200 GM2: 0.406  GM3: 0.0800  RAES: 1.40
     1s    -10.707211    1.230000
  6     Wed Apr 25 08:07:45 CEST 2018   EN: 2.550 GM2: 0.538  GM3: 0.1500  RAES: 3.00
     2s    -13.970922    2.096432
     2p    -10.063292    1.800000
  8     Wed Apr 25 08:07:45 CEST 2018   EN: 3.440 GM2: 0.452  GM3:-0.0517  RAES: 1.80
     2s    -20.229985    2.439742
     2p    -15.503117    2.137023


            Z     q(EN)     CN     RAES       Cart. coordinates
     1  C   4.0    0.08    2.99    3.02     1.70115     3.61696     0.19176
     2  O   6.0   -0.34    1.00    1.80     2.76313     4.75510     1.91162
     3  C   4.0   -0.10    3.98    3.58    -0.18770     1.53135     0.59324
     4  H   1.0    0.14    0.99    1.43     1.97669     4.44918    -1.70038
     5  C   4.0   -0.05    3.97    3.58     0.30679    -0.98032    -0.69709
     6  H   1.0    0.11    0.99    1.43    -2.08854     1.91092    -0.12730
     7  H   1.0    0.16    0.99    1.43    -0.44973     0.90749     2.54819
     8  O   6.0   -0.18    1.91    1.82     2.23118    -2.52459     0.39285
     9  H   1.0    0.13    0.99    1.43     1.35130    -0.57309    -2.43866
    10  H   1.0    0.12    0.99    1.43    -1.37234    -2.17656    -0.88601
    11  O   6.0   -0.33    1.92    1.82     1.34757    -3.59150     2.76784
    12  H   1.0    0.26    0.99    1.43     0.03035    -4.78196     2.27725

           ------------------------------------------------- 
          |        Self-Consistent Charge Iterations        |
           ------------------------------------------------- 

          ...................................................
          :                      SETUP                      :
          :.................................................:
          :  # basis functions                  30          :
          :  # atomic orbitals                  30          :
          :  # shells                           18          :
          :  # electrons                        36          :
          :  max. iterations                   250          :
          :  Hamiltonian                  GFN2-xTB          :
          :  restarted?                      false          :
          :  GBSA solvation                  false          :
          :  PC potential                    false          :
          :  electronic temp.         6000.0000000     K    :
          :  accuracy                    1.0000000          :
          :  -> integral cutoff          0.2500000E+02      :
          :  -> integral neglect         0.1000000E-07      :
          :  -> SCF convergence          0.1000000E-05 Eh   :
          :  -> wf. convergence          0.1000000E-03 e    :
          :  Broyden damping             0.4000000          :
          ...................................................

 iter      E             dE          RMSdq      gap      omega  full diag
   1    -21.6702265 -0.216702E+02  0.496E+00    4.29       0.0  T
   2    -21.7023194 -0.320929E-01  0.253E+00    3.37       1.0  T
   3    -21.7027552 -0.435805E-03  0.173E+00    3.94       1.0  T
   4    -21.7113735 -0.861828E-02  0.178E-01    3.58       1.0  T
   5    -21.7115502 -0.176679E-03  0.867E-02    3.62       1.0  T
   6    -21.7115572 -0.707884E-05  0.300E-02    3.62       1.0  T
   7    -21.7115585 -0.122356E-05  0.963E-03    3.62       3.0  T
   8    -21.7115588 -0.327393E-06  0.436E-03    3.62       6.6  T
   9    -21.7115588 -0.383045E-07  0.168E-03    3.62      17.2  T
  10    -21.7115588 -0.146807E-07  0.903E-04    3.62      32.0  T
  11    -21.7115588 -0.512560E-08  0.380E-04    3.62      75.9  T

   *** convergence criteria satisfied after 11 iterations ***

         #    Occupation            Energy/Eh            Energy/eV
      -------------------------------------------------------------
         1        2.0000           -0.7361143             -20.0307
       ...           ...                  ...                  ...
        12        1.9999           -0.5382571             -14.6467
        13        1.9997           -0.5152401             -14.0204
        14        1.9991           -0.4930477             -13.4165
        15        1.9988           -0.4872801             -13.2596
        16        1.9975           -0.4722624             -12.8509
        17        1.9894           -0.4449769             -12.1084
        18        1.9486           -0.4146387             -11.2829 (HOMO)
        19        0.0665           -0.2815404              -7.6611 (LUMO)
        20        0.0004           -0.1850042              -5.0342
        21                         -0.0024067              -0.0655
        22                          0.0375441               1.0216
        23                          0.0666165               1.8127
       ...                                ...                  ...
        30                          0.5137196              13.9790
      -------------------------------------------------------------
                  HL-Gap            0.1330983 Eh            3.6218 eV
             Fermi-level           -0.3455576 Eh           -9.4031 eV

 SCC (total)                   0 d,  0 h,  0 min,  0.932 sec
 SCC setup                      ...        0 min,  0.056 sec (  5.972%)
 Dispersion                     ...        0 min,  0.000 sec (  0.037%)
 integral evaluation            ...        0 min,  0.009 sec (  0.968%)
 zeroth order Hamiltonian       ...        0 min,  0.356 sec ( 38.142%)
 iterations                     ...        0 min,  0.018 sec (  1.949%)
 molecular gradient             ...        0 min,  0.005 sec (  0.581%)
 printout                       ...        0 min,  0.488 sec ( 52.344%)

         :::::::::::::::::::::::::::::::::::::::::::::::::::::
         ::                     SUMMARY                     ::
         :::::::::::::::::::::::::::::::::::::::::::::::::::::
         :: total energy              -21.548143286976 Eh   ::
         :: gradient norm               0.093719956061 Eh/α ::
         :: HOMO-LUMO gap               3.621789070107 eV   ::
         ::.................................................::
         :: SCC energy                -21.711558840014 Eh   ::
         :: -> isotropic ES             0.050736561677 Eh   ::
         :: -> anisotropic ES          -0.002909442484 Eh   ::
         :: -> anisotropic XC          -0.002012016729 Eh   ::
         :: -> dispersion              -0.005692119884 Eh   ::
         :: repulsion energy            0.163409202746 Eh   ::
         :: add. restraining            0.000000418606 Eh   ::
         :::::::::::::::::::::::::::::::::::::::::::::::::::::

           -------------------------------------------------
          |                Property Printout                |
           -------------------------------------------------

    * Orbital Energies and Occupations

         #    Occupation            Energy/Eh            Energy/eV
      -------------------------------------------------------------
         1        2.0000           -0.7361143             -20.0307
       ...           ...                  ...                  ...
         6        2.0000           -0.6193096             -16.8523
         7        2.0000           -0.5976488             -16.2629
         8        2.0000           -0.5938216             -16.1587
         9        2.0000           -0.5836884             -15.8830
        10        2.0000           -0.5578737             -15.1805
        11        2.0000           -0.5498279             -14.9616
        12        1.9999           -0.5382571             -14.6467
        13        1.9997           -0.5152401             -14.0204
        14        1.9991           -0.4930477             -13.4165
        15        1.9988           -0.4872801             -13.2596
        16        1.9975           -0.4722624             -12.8509
        17        1.9894           -0.4449769             -12.1084
        18        1.9486           -0.4146387             -11.2829 (HOMO)
        19        0.0665           -0.2815404              -7.6611 (LUMO)
        20        0.0004           -0.1850042              -5.0342
        21                         -0.0024067              -0.0655
        22                          0.0375441               1.0216
        23                          0.0666165               1.8127
        24                          0.1208142               3.2875
        25                          0.1359414               3.6992
        26                          0.1485448               4.0421
        27                          0.1874005               5.0994
        28                          0.2193265               5.9682
        29                          0.2923158               7.9543
        30                          0.5137196              13.9790
      -------------------------------------------------------------
                  HL-Gap            0.1330983 Eh            3.6218 eV
             Fermi-level           -0.3455576 Eh           -9.4031 eV

   #   Z        covCN         q      C6AA      α(0)
   1   6 C      2.756     0.204    23.659     7.965
   2   8 O      0.856    -0.315    20.059     6.005
   3   6 C      3.801    -0.089    22.206     6.709
   4   1 H      0.923     0.041     2.440     2.443
   5   6 C      3.674     0.076    19.543     6.335
   6   1 H      0.924     0.074     2.046     2.237
   7   1 H      0.924     0.097     1.816     2.108
   8   8 O      1.753    -0.211    17.497     5.648
   9   1 H      0.924     0.081     1.970     2.195
  10   1 H      0.924     0.048     2.340     2.392
  11   8 O      1.709    -0.313    19.227     5.920
  12   1 H      0.804     0.309     0.695     1.309

 Mol. C6AA /au·bohr⁶  :       1227.557494
 Mol. C8AA /au·bohr⁸  :      26109.840012
 Mol. α(0) /au        :         51.266256


Wiberg/Mayer (AO) data.
largest (>0.10) Wiberg bond orders for each atom
          total WBO             WBO to atom ...
     1  C   3.848        O    2 1.877    C    3 1.008    H    4 0.932
     2  O   2.008        C    1 1.877
     3  C   3.971        C    1 1.008    C    5 0.980    H    7 0.959    H    6 0.942
     4  H   0.984        C    1 0.932
     5  C   3.938        O    8 0.987    C    3 0.980    H   10 0.966    H    9 0.948
     6  H   0.990        C    3 0.942
     7  H   0.989        C    3 0.959
     8  O   2.019        C    5 0.987    O   11 0.970
     9  H   0.992        C    5 0.948
    10  H   0.995        C    5 0.966
    11  O   1.921        O    8 0.970    H   12 0.895
    12  H   0.904        O   11 0.895

molecular dipole:
                 x           y           z       tot (Debye)
 q only:       -1.441      -0.533      -0.988
   full:       -1.769      -0.737      -1.261       5.831
molecular quadrupole (traceless):
                xx          xy          yy          xz          yz          zz
 q only:       -1.588      -0.172       0.196      -5.059      -4.035       1.393
  q+dip:       -1.532       1.272       1.003      -6.868      -5.304       0.529
   full:       -1.510       0.272       0.955      -6.901      -5.365       0.555


           -------------------------------------------------
          | TOTAL ENERGY              -21.548143286976 Eh   |
          | GRADIENT NORM               0.093719956061 Eh/α |
          | HOMO-LUMO GAP               3.621789070107 eV   |
           -------------------------------------------------
           ------------------------------------------------- 
          |                  Meta Dynamics                  |
           ------------------------------------------------- 
 trajectories on xtb.trj or xtb.trj.<n>
 
 MD time /ps        :   50.00
 dt /fs             :    0.40
 SCC accuracy       :    2.00
 temperature /K     :  300.00
 max steps          :125000
 block length (av.) :  5000
 dumpstep(trj) /fs  :   10.00    25
 dumpstep(coords)/fs: 1000.00  2500
 H atoms mass (amu) :     2
 # deg. of freedom  :    36
 SHAKE off
 Berendsen THERMOSTAT on
kpush  :    0.050
alpha  :    0.300
update : 100
         time (ps)    <Epot>      Ekin   <T>   T     Etot
      0    0.00      0.00000   0.0428    0.    0.   -21.45539
est. speed in wall clock h for 100 ps :  0.98
    200    0.08    -21.39586   0.0465  543.  817.   -21.46416
    400    0.16    -21.45523   0.0637  709. 1118.   -21.46810
    600    0.24    -21.47869   0.0649  795. 1138.   -21.47447
    800    0.32    -21.49160   0.0550  831.  966.   -21.48178
   1000    0.40    -21.49955   0.0348  837.  611.   -21.48574
   1200    0.48    -21.50464   0.0449  823.  788.   -21.48935
   1400    0.56    -21.50875   0.0365  812.  641.   -21.49316
   1600    0.64    -21.51143   0.0321  789.  564.   -21.49662
   1800    0.72    -21.51314   0.0363  759.  636.   -21.49804
   2000    0.80    -21.51514   0.0358  742.  629.   -21.50056
   2200    0.88    -21.51714   0.0413  730.  725.   -21.50498
   2400    0.96    -21.51879   0.0426  716.  748.   -21.50623
   2600    1.04    -21.51923   0.0381  703.  668.   -21.46511
   2800    1.12    -21.51901   0.0547  717.  959.   -21.46657
   3000    1.20    -21.51931   0.0463  731.  812.   -21.47357
   3200    1.28    -21.51908   0.0371  730.  650.   -21.47731
   3400    1.36    -21.51852   0.0283  719.  496.   -21.47958
   3600    1.44    -21.51798   0.0324  707.  569.   -21.48129
   3800    1.52    -21.51765   0.0270  698.  473.   -21.48238
   4000    1.60    -21.51753   0.0288  690.  504.   -21.48503
   4200    1.68    -21.51754   0.0268  683.  471.   -21.48659
   4400    1.76    -21.51758   0.0244  676.  427.   -21.48972
   4600    1.84    -21.51809   0.0345  676.  605.   -21.49378
   4800    1.92    -21.51853   0.0225  672.  395.   -21.49714
block <Epot> / <T> :     -21.52314  666.     drift:  0.99D+02   Tbath : 300.
   5000    2.00    -21.51883   0.0390  666.  684.   -21.49740
   5200    2.08    -21.51862   0.0507  672.  889.   -21.46015
   5400    2.16    -21.51839   0.0380  680.  667.   -21.46522
   5600    2.24    -21.51793   0.0419  680.  735.   -21.46837
   5800    2.32    -21.51766   0.0365  680.  640.   -21.47170
   6000    2.40    -21.51739   0.0321  678.  564.   -21.47632
   6200    2.48    -21.51711   0.0355  675.  623.   -21.47803
   6400    2.56    -21.51701   0.0406  673.  711.   -21.48042
   6600    2.64    -21.51690   0.0310  669.  543.   -21.48194
   6800    2.72    -21.51669   0.0239  663.  419.   -21.48417
   7000    2.80    -21.51671   0.0270  660.  474.   -21.48598
   7200    2.88    -21.51682   0.0231  657.  405.   -21.48868
   7400    2.96    -21.51673   0.0232  651.  407.   -21.49075
   7600    3.04    -21.51642   0.0323  646.  566.   -21.44937
   7800    3.12    -21.51584   0.0543  650.  953.   -21.44924
   8000    3.20    -21.51529   0.0312  652.  548.   -21.45406
   8200    3.28    -21.51456   0.0415  649.  728.   -21.45652
   8400    3.36    -21.51397   0.0318  647.  558.   -21.45812
   8600    3.44    -21.51334   0.0218  643.  382.   -21.46005
   8800    3.52    -21.51275   0.0283  639.  497.   -21.46257
   9000    3.60    -21.51236   0.0385  637.  675.   -21.46524
   9200    3.68    -21.51208   0.0343  636.  601.   -21.46704
   9400    3.76    -21.51180   0.0321  634.  563.   -21.46811
   9600    3.84    -21.51146   0.0264  630.  463.   -21.47083
   9800    3.92    -21.51109   0.0293  625.  514.   -21.47016
  10000    4.00    -21.51089   0.0297  623.  521.   -21.47327
block <Epot> / <T> :     -21.50294  580.     drift:  0.99D+02   Tbath : 300.
  10200    4.08    -21.51010   0.0341  621.  598.   -21.43109
  10400    4.16    -21.50924   0.0440  621.  773.   -21.43344
  10600    4.24    -21.50872   0.0298  625.  524.   -21.43673
  10800    4.32    -21.50829   0.0409  628.  718.   -21.44231
  11000    4.40    -21.50789   0.0435  630.  763.   -21.44608
  11200    4.48    -21.50736   0.0335  628.  587.   -21.44875
  11400    4.56    -21.50704   0.0362  629.  634.   -21.45235
  11600    4.64    -21.50668   0.0311  628.  545.   -21.45483
  11800    4.72    -21.50631   0.0349  626.  612.   -21.45539
  12000    4.80    -21.50601   0.0256  625.  449.   -21.45980
  12200    4.88    -21.50579   0.0341  624.  598.   -21.46157
  12400    4.96    -21.50565   0.0339  623.  595.   -21.46372
  12600    5.04    -21.50532   0.0333  622.  584.   -21.42444
  12800    5.12    -21.50456   0.0339  623.  595.   -21.42370
  13000    5.20    -21.50405   0.0503  626.  882.   -21.42746
  13200    5.28    -21.50348   0.0419  626.  736.   -21.42926
  13400    5.36    -21.50288   0.0325  625.  571.   -21.43189
  13600    5.44    -21.50234   0.0298  625.  522.   -21.43385
  13800    5.52    -21.50192   0.0274  625.  481.   -21.43777
  14000    5.60    -21.50155   0.0221  625.  388.   -21.44040
  14200    5.68    -21.50119   0.0219  624.  385.   -21.44335
  14400    5.76    -21.50082   0.0269  623.  472.   -21.44615
  14600    5.84    -21.50049   0.0360  622.  632.   -21.44679
  14800    5.92    -21.50020   0.0282  620.  494.   -21.44920
  15000    6.00    -21.49989   0.0258  618.  452.   -21.45224
block <Epot> / <T> :     -21.47787  609.     drift:  0.99D+02   Tbath : 300.
  15200    6.08    -21.49913   0.0352  616.  618.   -21.40743
  15400    6.16    -21.49837   0.0458  616.  804.   -21.40869
  15600    6.24    -21.49776   0.0420  617.  737.   -21.41079
  15800    6.32    -21.49732   0.0527  620.  925.   -21.41560
  16000    6.40    -21.49697   0.0260  623.  456.   -21.42191
  16200    6.48    -21.49656   0.0562  624.  986.   -21.42659
  16400    6.56    -21.49621   0.0266  625.  468.   -21.43072
  16600    6.64    -21.49590   0.0499  625.  875.   -21.43373
  16800    6.72    -21.49558   0.0385  625.  675.   -21.43508
  17000    6.80    -21.49531   0.0411  625.  720.   -21.43800
  17200    6.88    -21.49503   0.0302  624.  529.   -21.44141
  17400    6.96    -21.49483   0.0372  624.  652.   -21.44426
  17600    7.04    -21.49446   0.0434  623.  761.   -21.40549
  17800    7.12    -21.49390   0.0423  624.  741.   -21.40422
  18000    7.20    -21.49339   0.0396  625.  695.   -21.40935
  18200    7.28    -21.49286   0.0402  625.  705.   -21.41104
  18400    7.36    -21.49240   0.0402  626.  705.   -21.41381
  18600    7.44    -21.49193   0.0173  625.  303.   -21.41650
  18800    7.52    -21.49149   0.0356  625.  624.   -21.42080
  19000    7.60    -21.49113   0.0389  625.  683.   -21.42345
  19200    7.68    -21.49078   0.0266  624.  467.   -21.42466
  19400    7.76    -21.49033   0.0265  622.  464.   -21.42601
  19600    7.84    -21.49000   0.0397  621.  696.   -21.42794
  19800    7.92    -21.48971   0.0302  621.  529.   -21.43002
  20000    8.00    -21.48937   0.0211  619.  370.   -21.43155
block <Epot> / <T> :     -21.45779  620.     drift:  0.22D-01   Tbath : 300.
  20200    8.08    -21.48869   0.0301  617.  528.   -21.38530
  20400    8.16    -21.48808   0.0459  618.  805.   -21.38937
  20600    8.24    -21.48764   0.0460  620.  807.   -21.39465
  20800    8.32    -21.48714   0.0484  621.  850.   -21.39687
  21000    8.40    -21.48668   0.0435  622.  764.   -21.40151
  21200    8.48    -21.48620   0.0301  621.  529.   -21.40466
  21400    8.56    -21.48578   0.0370  622.  649.   -21.40733
  21600    8.64    -21.48540   0.0298  622.  523.   -21.41122
  21800    8.72    -21.48505   0.0363  622.  637.   -21.41286
  22000    8.80    -21.48468   0.0283  621.  496.   -21.41441
  22200    8.88    -21.48430   0.0256  619.  450.   -21.41648
  22400    8.96    -21.48391   0.0294  618.  515.   -21.41706
  22600    9.04    -21.48348   0.0215  617.  377.   -21.37793
  22800    9.12    -21.48282   0.0238  616.  417.   -21.37572
  23000    9.20    -21.48229   0.0350  618.  614.   -21.37905
  23200    9.28    -21.48175   0.0271  618.  476.   -21.38354
  23400    9.36    -21.48132   0.0363  620.  637.   -21.38780
  23600    9.44    -21.48093   0.0338  621.  593.   -21.39240
  23800    9.52    -21.48050   0.0550  622.  965.   -21.39530
  24000    9.60    -21.48013   0.0403  622.  707.   -21.39816
  24200    9.68    -21.47972   0.0259  621.  454.   -21.40130
  24400    9.76    -21.47939   0.0320  622.  561.   -21.40489
  24600    9.84    -21.47903   0.0265  621.  466.   -21.40671
  24800    9.92    -21.47872   0.0250  621.  439.   -21.40950
  25000   10.00    -21.47841   0.0321  620.  563.   -21.41107
block <Epot> / <T> :     -21.43455  624.     drift:  0.23D-01   Tbath : 300.
  25200   10.08    -21.47791   0.0449  620.  787.   -21.37001
  25400   10.16    -21.47736   0.0324  620.  569.   -21.37243
  25600   10.24    -21.47681   0.0404  620.  709.   -21.37546
  25800   10.32    -21.47631   0.0452  620.  792.   -21.37820
  26000   10.40    -21.47590   0.0273  621.  479.   -21.38215
  26200   10.48    -21.47549   0.0402  621.  705.   -21.38541
  26400   10.56    -21.47507   0.0302  621.  531.   -21.38869
  26600   10.64    -21.47469   0.0336  621.  589.   -21.38941
  26800   10.72    -21.47430   0.0331  620.  580.   -21.39381
  27000   10.80    -21.47395   0.0279  620.  490.   -21.39549
  27200   10.88    -21.47365   0.0271  620.  475.   -21.39755
  27400   10.96    -21.47332   0.0236  619.  414.   -21.40109
  27600   11.04    -21.47295   0.0327  619.  574.   -21.36287
  27800   11.12    -21.47235   0.0319  618.  560.   -21.36096
  28000   11.20    -21.47173   0.0291  617.  510.   -21.36173
  28200   11.28    -21.47119   0.0406  617.  713.   -21.36330
  28400   11.36    -21.47073   0.0330  617.  578.   -21.36713
  28600   11.44    -21.47026   0.0363  617.  637.   -21.37021
  28800   11.52    -21.46979   0.0338  617.  592.   -21.37321
  29000   11.60    -21.46931   0.0214  616.  376.   -21.37412
  29200   11.68    -21.46884   0.0226  615.  397.   -21.37521
  29400   11.76    -21.46835   0.0229  613.  402.   -21.37598
  29600   11.84    -21.46788   0.0329  612.  577.   -21.37623
  29800   11.92    -21.46749   0.0247  611.  434.   -21.38038
  30000   12.00    -21.46707   0.0219  610.  385.   -21.38072
block <Epot> / <T> :     -21.41032  560.     drift:  0.23D-01   Tbath : 300.
  30200   12.08    -21.46646   0.0373  609.  654.   -21.33597
  30400   12.16    -21.46592   0.0390  610.  685.   -21.34032
  30600   12.24    -21.46539   0.0548  611.  962.   -21.34378
  30800   12.32    -21.46485   0.0491  611.  861.   -21.34762
  31000   12.40    -21.46435   0.0221  612.  387.   -21.35111
  31200   12.48    -21.46390   0.0419  612.  735.   -21.35420
  31400   12.56    -21.46343   0.0428  612.  751.   -21.35781
  31600   12.64    -21.46296   0.0323  612.  567.   -21.35976
  31800   12.72    -21.46254   0.0461  612.  809.   -21.36284
  32000   12.80    -21.46212   0.0283  612.  497.   -21.36519
  32200   12.88    -21.46169   0.0236  611.  414.   -21.36625
  32400   12.96    -21.46129   0.0279  610.  489.   -21.36718
  32600   13.04    -21.46085   0.0345  610.  605.   -21.32861
  32800   13.12    -21.46029   0.0493  610.  865.   -21.32942
  33000   13.20    -21.45975   0.0526  611.  922.   -21.33295
  33200   13.28    -21.45923   0.0415  611.  729.   -21.33612
  33400   13.36    -21.45874   0.0317  612.  557.   -21.33886
  33600   13.44    -21.45821   0.0324  611.  568.   -21.34221
  33800   13.52    -21.45778   0.0354  612.  621.   -21.34564
  34000   13.60    -21.45731   0.0328  612.  575.   -21.34957
  34200   13.68    -21.45688   0.0270  611.  474.   -21.35147
  34400   13.76    -21.45645   0.0312  611.  548.   -21.35205
  34600   13.84    -21.45603   0.0275  611.  482.   -21.35491
  34800   13.92    -21.45560   0.0313  610.  549.   -21.35658
  35000   14.00    -21.45522   0.0370  609.  649.   -21.35843
block <Epot> / <T> :     -21.38414  607.     drift:  0.25D-01   Tbath : 300.
  35200   14.08    -21.45465   0.0311  609.  545.   -21.31377
  35400   14.16    -21.45416   0.0574  611. 1007.   -21.31838
  35600   14.24    -21.45368   0.0511  612.  896.   -21.32306
  35800   14.32    -21.45323   0.0542  613.  950.   -21.32751
  36000   14.40    -21.45279   0.0432  614.  759.   -21.33269
  36200   14.48    -21.45233   0.0369  614.  647.   -21.33613
  36400   14.56    -21.45187   0.0252  614.  443.   -21.33713
  36600   14.64    -21.45143   0.0298  613.  522.   -21.34090
  36800   14.72    -21.45100   0.0289  613.  508.   -21.34307
  37000   14.80    -21.45059   0.0328  612.  576.   -21.34453
  37200   14.88    -21.45020   0.0280  612.  491.   -21.34786
  37400   14.96    -21.44981   0.0270  612.  474.   -21.34990
  37600   15.04    -21.44940   0.0398  611.  699.   -21.31114
  37800   15.12    -21.44883   0.0351  611.  616.   -21.30887
  38000   15.20    -21.44827   0.0440  611.  773.   -21.31100
  38200   15.28    -21.44776   0.0296  611.  519.   -21.31411
  38400   15.36    -21.44728   0.0361  612.  634.   -21.31807
  38600   15.44    -21.44681   0.0410  612.  719.   -21.32134
  38800   15.52    -21.44638   0.0369  612.  647.   -21.32395
  39000   15.60    -21.44595   0.0222  612.  389.   -21.32891
  39200   15.68    -21.44555   0.0482  613.  845.   -21.33127
  39400   15.76    -21.44514   0.0375  612.  657.   -21.33305
  39600   15.84    -21.44473   0.0379  612.  665.   -21.33589
  39800   15.92    -21.44436   0.0362  612.  635.   -21.33976
  40000   16.00    -21.44398   0.0278  611.  487.   -21.34111
block <Epot> / <T> :     -21.36526  623.     drift:  0.23D-01   Tbath : 300.
  40200   16.08    -21.44346   0.0365  611.  641.   -21.29554
  40400   16.16    -21.44294   0.0430  611.  754.   -21.29990
  40600   16.24    -21.44245   0.0497  612.  871.   -21.30461
  40800   16.32    -21.44194   0.0322  612.  564.   -21.30576
  41000   16.40    -21.44143   0.0433  611.  759.   -21.30800
  41200   16.48    -21.44097   0.0219  611.  385.   -21.31126
  41400   16.56    -21.44048   0.0361  611.  633.   -21.31224
  41600   16.64    -21.44004   0.0391  611.  685.   -21.31574
  41800   16.72    -21.43959   0.0256  610.  449.   -21.31922
  42000   16.80    -21.43913   0.0163  609.  285.   -21.31990
  42200   16.88    -21.43865   0.0200  608.  350.   -21.32005
  42400   16.96    -21.43820   0.0249  607.  437.   -21.31990
  42600   17.04    -21.43775   0.0367  607.  643.   -21.28199
  42800   17.12    -21.43723   0.0501  608.  879.   -21.28216
  43000   17.20    -21.43679   0.0649  610. 1139.   -21.28898
  43200   17.28    -21.43640   0.0469  612.  822.   -21.29557
  43400   17.36    -21.43600   0.0427  613.  749.   -21.30146
  43600   17.44    -21.43562   0.0256  614.  448.   -21.30547
  43800   17.52    -21.43525   0.0482  615.  846.   -21.30969
  44000   17.60    -21.43490   0.0372  616.  652.   -21.31476
  44200   17.68    -21.43457   0.0396  617.  694.   -21.31915
  44400   17.76    -21.43424   0.0474  617.  831.   -21.32408
  44600   17.84    -21.43394   0.0229  618.  403.   -21.32771
  44800   17.92    -21.43364   0.0364  618.  639.   -21.33128
  45000   18.00    -21.43334   0.0311  618.  546.   -21.33522
block <Epot> / <T> :     -21.34822  673.     drift:  0.21D-01   Tbath : 300.
  45200   18.08    -21.43292   0.0353  618.  619.   -21.28975
  45400   18.16    -21.43244   0.0301  618.  528.   -21.29130
  45600   18.24    -21.43197   0.0424  618.  744.   -21.29359
  45800   18.32    -21.43158   0.0495  619.  869.   -21.29921
  46000   18.40    -21.43119   0.0450  619.  789.   -21.30268
  46200   18.48    -21.43083   0.0422  620.  741.   -21.30593
  46400   18.56    -21.43046   0.0329  620.  578.   -21.31056
  46600   18.64    -21.43009   0.0325  619.  569.   -21.31399
  46800   18.72    -21.42972   0.0277  619.  486.   -21.31480
  47000   18.80    -21.42935   0.0358  619.  628.   -21.31643
  47200   18.88    -21.42901   0.0299  618.  525.   -21.31838
  47400   18.96    -21.42867   0.0313  618.  549.   -21.32159
  47600   19.04    -21.42829   0.0286  617.  502.   -21.28148
  47800   19.12    -21.42779   0.0252  617.  442.   -21.27702
  48000   19.20    -21.42735   0.0532  617.  934.   -21.28145
  48200   19.28    -21.42689   0.0225  618.  395.   -21.28295
  48400   19.36    -21.42643   0.0341  617.  599.   -21.28560
  48600   19.44    -21.42601   0.0429  617.  752.   -21.28900
  48800   19.52    -21.42559   0.0298  617.  523.   -21.29195
  49000   19.60    -21.42519   0.0344  617.  603.   -21.29488
  49200   19.68    -21.42479   0.0464  617.  813.   -21.29664
  49400   19.76    -21.42441   0.0281  617.  493.   -21.29934
  49600   19.84    -21.42403   0.0352  616.  618.   -21.30190
  49800   19.92    -21.42367   0.0255  616.  448.   -21.30335
  50000   20.00    -21.42331   0.0244  616.  429.   -21.30569
block <Epot> / <T> :     -21.33297  594.     drift:  0.17D-01   Tbath : 300.
  50200   20.08    -21.42284   0.0342  615.  599.   -21.26139
  50400   20.16    -21.42230   0.0297  615.  521.   -21.26207
  50600   20.24    -21.42179   0.0196  614.  343.   -21.26434
  50800   20.32    -21.42127   0.0301  614.  527.   -21.26509
  51000   20.40    -21.42077   0.0251  613.  440.   -21.26606
  51200   20.48    -21.42027   0.0216  612.  378.   -21.26798
  51400   20.56    -21.41978   0.0228  612.  399.   -21.26917
  51600   20.64    -21.41929   0.0217  611.  381.   -21.27090
  51800   20.72    -21.41881   0.0253  610.  444.   -21.27255
  52000   20.80    -21.41833   0.0230  609.  403.   -21.27349
  52200   20.88    -21.41786   0.0257  609.  451.   -21.27476
  52400   20.96    -21.41740   0.0246  608.  432.   -21.27434
  52600   21.04    -21.41691   0.0226  607.  396.   -21.23396
  52800   21.12    -21.41627   0.0146  606.  255.   -21.22637
  53000   21.20    -21.41564   0.0238  605.  417.   -21.22684
  53200   21.28    -21.41503   0.0445  605.  781.   -21.22945
  53400   21.36    -21.41459   0.0783  607. 1374.   -21.23616
  53600   21.44    -21.41418   0.0697  609. 1223.   -21.24291
  53800   21.52    -21.41378   0.0498  610.  874.   -21.24907
  54000   21.60    -21.41334   0.0289  611.  507.   -21.25477
  54200   21.68    -21.41293   0.0515  611.  904.   -21.25935
  54400   21.76    -21.41254   0.0365  612.  640.   -21.26603
  54600   21.84    -21.41217   0.0566  613.  994.   -21.26881
  54800   21.92    -21.41183   0.0396  613.  694.   -21.27467
  55000   22.00    -21.41151   0.0399  614.  699.   -21.27826
block <Epot> / <T> :     -21.29347  601.     drift:  0.23D-01   Tbath : 300.
  55200   22.08    -21.41107   0.0555  615.  973.   -21.23585
  55400   22.16    -21.41061   0.0460  615.  807.   -21.24024
  55600   22.24    -21.41017   0.0360  616.  631.   -21.24337
  55800   22.32    -21.40975   0.0392  617.  688.   -21.24849
  56000   22.40    -21.40936   0.0551  617.  967.   -21.25445
  56200   22.48    -21.40897   0.0347  618.  609.   -21.25842
  56400   22.56    -21.40859   0.0418  618.  734.   -21.26298
  56600   22.64    -21.40820   0.0341  618.  599.   -21.26538
  56800   22.72    -21.40782   0.0304  618.  534.   -21.26656
  57000   22.80    -21.40745   0.0343  618.  601.   -21.26937
  57200   22.88    -21.40712   0.0417  618.  731.   -21.27347
  57400   22.96    -21.40681   0.0385  619.  676.   -21.27938
  57600   23.04    -21.40644   0.0223  619.  390.   -21.24136
  57800   23.12    -21.40594   0.0325  618.  569.   -21.23507
  58000   23.20    -21.40550   0.0353  618.  620.   -21.23619
  58200   23.28    -21.40505   0.0547  618.  960.   -21.24126
  58400   23.36    -21.40464   0.0483  619.  847.   -21.24539
  58600   23.44    -21.40422   0.0308  619.  540.   -21.24881
  58800   23.52    -21.40387   0.0403  620.  707.   -21.25258
  59000   23.60    -21.40349   0.0358  620.  627.   -21.25648
  59200   23.68    -21.40311   0.0182  620.  320.   -21.25877
  59400   23.76    -21.40272   0.0325  619.  570.   -21.26231
  59600   23.84    -21.40236   0.0405  619.  710.   -21.26270
  59800   23.92    -21.40204   0.0332  619.  582.   -21.26603
  60000   24.00    -21.40171   0.0429  619.  752.   -21.27094
block <Epot> / <T> :     -21.29384  678.     drift:  0.20D-01   Tbath : 300.
  60200   24.08    -21.40130   0.0510  620.  895.   -21.22874
  60400   24.16    -21.40087   0.0315  620.  552.   -21.23205
  60600   24.24    -21.40042   0.0281  620.  493.   -21.23418
  60800   24.32    -21.40000   0.0512  620.  898.   -21.23652
  61000   24.40    -21.39959   0.0424  620.  745.   -21.24036
  61200   24.48    -21.39919   0.0366  620.  642.   -21.24231
  61400   24.56    -21.39879   0.0338  620.  593.   -21.24488
  61600   24.64    -21.39840   0.0283  620.  497.   -21.24832
  61800   24.72    -21.39802   0.0366  619.  643.   -21.25055
  62000   24.80    -21.39765   0.0246  619.  432.   -21.25488
  62200   24.88    -21.39728   0.0300  619.  526.   -21.25416
  62400   24.96    -21.39692   0.0347  618.  610.   -21.25681
  62600   25.04    -21.39654   0.0226  618.  396.   -21.22123
  62800   25.12    -21.39602   0.0276  617.  484.   -21.21237
  63000   25.20    -21.39552   0.0258  617.  453.   -21.21209
  63200   25.28    -21.39505   0.0369  617.  647.   -21.21474
  63400   25.36    -21.39459   0.0244  616.  429.   -21.21758
  63600   25.44    -21.39413   0.0363  616.  636.   -21.22060
  63800   25.52    -21.39371   0.0388  616.  681.   -21.22242
  64000   25.60    -21.39328   0.0267  616.  468.   -21.22615
  64200   25.68    -21.39288   0.0377  616.  662.   -21.23025
  64400   25.76    -21.39253   0.0410  617.  719.   -21.23379
  64600   25.84    -21.39217   0.0280  617.  491.   -21.23820
  64800   25.92    -21.39179   0.0300  617.  526.   -21.23989
  65000   26.00    -21.39141   0.0168  616.  295.   -21.24084
block <Epot> / <T> :     -21.26771  579.     drift:  0.20D-01   Tbath : 300.
  65200   26.08    -21.39095   0.0402  616.  705.   -21.19807
  65400   26.16    -21.39049   0.0544  617.  954.   -21.20116
  65600   26.24    -21.39010   0.0539  618.  946.   -21.20679
  65800   26.32    -21.38984   0.1665  621. 2921.   -21.22182
  66000   26.40    -21.38989   0.1496  628. 2624.   -21.24591
  66200   26.48    -21.38980   0.0685  632. 1201.   -21.26245
  66400   26.56    -21.38975   0.1173  635. 2059.   -21.27518
  66600   26.64    -21.38985   0.1307  641. 2292.   -21.29763
  66800   26.72    -21.39010   0.1830  647. 3210.   -21.32446
  67000   26.80    -21.39046   0.1237  654. 2171.   -21.34906
  67200   26.88    -21.39076   0.0912  659. 1599.   -21.36775
  67400   26.96    -21.39106   0.1134  663. 1990.   -21.38453
  67600   27.04    -21.39138   0.1119  667. 1964.   -21.37084
  67800   27.12    -21.39169   0.1255  671. 2202.   -21.38289
  68000   27.20    -21.39204   0.1115  676. 1955.   -21.39884
  68200   27.28    -21.39239   0.1107  679. 1942.   -21.41117
  68400   27.36    -21.39270   0.0831  681. 1458.   -21.42293
  68600   27.44    -21.39300   0.0814  682. 1428.   -21.43010
  68800   27.52    -21.39330   0.0673  684. 1181.   -21.43754
  69000   27.60    -21.39364   0.0530  685.  929.   -21.44789
  69200   27.68    -21.39401   0.0830  686. 1455.   -21.45475
  69400   27.76    -21.39438   0.0690  688. 1211.   -21.46115
  69600   27.84    -21.39474   0.0436  688.  764.   -21.46893
  69800   27.92    -21.39511   0.0696  689. 1222.   -21.47478
  70000   28.00    -21.39548   0.0465  689.  815.   -21.47819
block <Epot> / <T> :     -21.44910 1639.     drift: -0.44D-01   Tbath : 300.
  70200   28.08    -21.39579   0.0633  690. 1111.   -21.44198
  70400   28.16    -21.39612   0.0599  691. 1051.   -21.44894
  70600   28.24    -21.39647   0.0692  693. 1214.   -21.45566
  70800   28.32    -21.39684   0.0556  694.  975.   -21.46353
  71000   28.40    -21.39720   0.0529  695.  929.   -21.47124
  71200   28.48    -21.39754   0.0561  695.  985.   -21.47448
  71400   28.56    -21.39789   0.0437  695.  766.   -21.48069
  71600   28.64    -21.39825   0.0447  695.  784.   -21.48482
  71800   28.72    -21.39862   0.0358  696.  627.   -21.48851
  72000   28.80    -21.39900   0.0437  696.  766.   -21.49329
  72200   28.88    -21.39938   0.0404  696.  708.   -21.49974
  72400   28.96    -21.39977   0.0318  696.  558.   -21.49971
  72600   29.04    -21.40011   0.0337  695.  592.   -21.46768
  72800   29.12    -21.40040   0.0417  696.  731.   -21.46411
  73000   29.20    -21.40071   0.0542  696.  951.   -21.46753
  73200   29.28    -21.40105   0.0604  697. 1060.   -21.47445
  73400   29.36    -21.40140   0.0568  697.  996.   -21.48403
  73600   29.44    -21.40177   0.0388  698.  681.   -21.48664
  73800   29.52    -21.40212   0.0360  698.  632.   -21.49023
  74000   29.60    -21.40247   0.0454  698.  796.   -21.49470
  74200   29.68    -21.40282   0.0375  698.  659.   -21.49888
  74400   29.76    -21.40318   0.0283  698.  497.   -21.50046
  74600   29.84    -21.40353   0.0394  697.  691.   -21.50369
  74800   29.92    -21.40389   0.0385  697.  676.   -21.50656
  75000   30.00    -21.40425   0.0261  697.  458.   -21.50885
block <Epot> / <T> :     -21.52701  796.     drift: -0.88D-01   Tbath : 300.
  75200   30.08    -21.40454   0.0501  696.  878.   -21.46545
  75400   30.16    -21.40486   0.0639  697. 1121.   -21.47163
  75600   30.24    -21.40519   0.0516  698.  905.   -21.47731
  75800   30.32    -21.40552   0.0496  698.  870.   -21.48292
  76000   30.40    -21.40585   0.0520  698.  912.   -21.48719
  76200   30.48    -21.40619   0.0496  699.  870.   -21.49231
  76400   30.56    -21.40654   0.0408  699.  716.   -21.49623
  76600   30.64    -21.40689   0.0306  699.  537.   -21.49888
  76800   30.72    -21.40723   0.0341  699.  598.   -21.50498
  77000   30.80    -21.40758   0.0294  699.  517.   -21.50822
  77200   30.88    -21.40792   0.0283  698.  496.   -21.50929
  77400   30.96    -21.40825   0.0154  698.  270.   -21.51052
  77600   31.04    -21.40855   0.0271  697.  476.   -21.47697
  77800   31.12    -21.40885   0.0666  697. 1169.   -21.47425
  78000   31.20    -21.40915   0.0562  698.  986.   -21.47844
  78200   31.28    -21.40948   0.0552  699.  968.   -21.48349
  78400   31.36    -21.40982   0.0431  699.  756.   -21.49162
  78600   31.44    -21.41015   0.0334  699.  587.   -21.49721
  78800   31.52    -21.41047   0.0275  699.  482.   -21.50014
  79000   31.60    -21.41078   0.0340  699.  596.   -21.50214
  79200   31.68    -21.41109   0.0260  699.  456.   -21.50390
  79400   31.76    -21.41140   0.0234  698.  410.   -21.50724
  79600   31.84    -21.41170   0.0250  698.  439.   -21.50693
  79800   31.92    -21.41200   0.0219  697.  384.   -21.50971
  80000   32.00    -21.41232   0.0259  696.  454.   -21.51211
block <Epot> / <T> :     -21.53343  693.     drift: -0.88D-01   Tbath : 300.
  80200   32.08    -21.41260   0.0488  696.  856.   -21.47375
  80400   32.16    -21.41289   0.0469  697.  822.   -21.47686
  80600   32.24    -21.41319   0.0424  697.  744.   -21.48272
  80800   32.32    -21.41348   0.0415  698.  727.   -21.48972
  81000   32.40    -21.41377   0.0350  698.  614.   -21.49145
  81200   32.48    -21.41404   0.0252  697.  442.   -21.49549
  81400   32.56    -21.41432   0.0362  697.  635.   -21.49595
  81600   32.64    -21.41460   0.0222  696.  390.   -21.49965
  81800   32.72    -21.41488   0.0374  696.  655.   -21.50096
  82000   32.80    -21.41518   0.0399  696.  700.   -21.50363
  82200   32.88    -21.41548   0.0330  696.  578.   -21.50748
  82400   32.96    -21.41577   0.0204  695.  357.   -21.50873
  82600   33.04    -21.41605   0.0275  694.  482.   -21.47542
  82800   33.12    -21.41628   0.0529  695.  928.   -21.46968
  83000   33.20    -21.41654   0.0509  695.  893.   -21.47523
  83200   33.28    -21.41680   0.0412  695.  724.   -21.48156
  83400   33.36    -21.41707   0.0501  696.  880.   -21.48652
  83600   33.44    -21.41735   0.0388  696.  681.   -21.49014
  83800   33.52    -21.41761   0.0294  696.  516.   -21.49350
  84000   33.60    -21.41787   0.0344  695.  603.   -21.49645
  84200   33.68    -21.41815   0.0361  695.  634.   -21.49847
  84400   33.76    -21.41843   0.0240  695.  420.   -21.50299
  84600   33.84    -21.41868   0.0239  694.  419.   -21.50181
  84800   33.92    -21.41896   0.0278  694.  488.   -21.50678
  85000   34.00    -21.41923   0.0224  694.  393.   -21.50665
block <Epot> / <T> :     -21.52975  649.     drift: -0.25D-01   Tbath : 300.
  85200   34.08    -21.41943   0.0378  693.  664.   -21.46195
  85400   34.16    -21.41964   0.0493  693.  865.   -21.46699
  85600   34.24    -21.41989   0.0536  694.  941.   -21.47245
  85800   34.32    -21.42013   0.0401  694.  704.   -21.47786
  86000   34.40    -21.42037   0.0259  694.  454.   -21.48241
  86200   34.48    -21.42060   0.0356  694.  624.   -21.48530
  86400   34.56    -21.42083   0.0265  694.  465.   -21.48851
  86600   34.64    -21.42106   0.0350  694.  613.   -21.49059
  86800   34.72    -21.42130   0.0370  693.  649.   -21.49228
  87000   34.80    -21.42154   0.0392  693.  687.   -21.49557
  87200   34.88    -21.42179   0.0296  693.  518.   -21.49928
  87400   34.96    -21.42203   0.0275  692.  482.   -21.50057
  87600   35.04    -21.42226   0.0331  692.  582.   -21.46476
  87800   35.12    -21.42245   0.0566  692.  994.   -21.46118
  88000   35.20    -21.42265   0.0367  692.  644.   -21.46649
  88200   35.28    -21.42284   0.0430  692.  755.   -21.46771
  88400   35.36    -21.42305   0.0395  692.  693.   -21.47426
  88600   35.44    -21.42324   0.0325  692.  569.   -21.47812
  88800   35.52    -21.42345   0.0303  692.  532.   -21.48010
  89000   35.60    -21.42366   0.0336  692.  589.   -21.48340
  89200   35.68    -21.42387   0.0362  692.  635.   -21.48544
  89400   35.76    -21.42409   0.0307  692.  539.   -21.48790
  89600   35.84    -21.42431   0.0364  691.  638.   -21.49170
  89800   35.92    -21.42454   0.0357  691.  627.   -21.49501
  90000   36.00    -21.42477   0.0300  691.  526.   -21.49859
block <Epot> / <T> :     -21.51896  646.     drift:  0.28D-02   Tbath : 300.
  90200   36.08    -21.42495   0.0455  691.  797.   -21.45465
  90400   36.16    -21.42513   0.0439  691.  771.   -21.46021
  90600   36.24    -21.42534   0.0541  692.  949.   -21.46420
  90800   36.32    -21.42555   0.0495  692.  868.   -21.47267
  91000   36.40    -21.42574   0.0487  692.  854.   -21.47563
  91200   36.48    -21.42596   0.0371  693.  651.   -21.48387
  91400   36.56    -21.42619   0.0479  693.  840.   -21.48607
  91600   36.64    -21.42643   0.0530  693.  929.   -21.48960
  91800   36.72    -21.42667   0.0334  693.  586.   -21.49453
  92000   36.80    -21.42689   0.0225  693.  394.   -21.49897
  92200   36.88    -21.42711   0.0325  693.  569.   -21.50152
  92400   36.96    -21.42734   0.0332  692.  583.   -21.50323
  92600   37.04    -21.42756   0.0451  692.  790.   -21.47027
  92800   37.12    -21.42776   0.0553  693.  970.   -21.46783
  93000   37.20    -21.42797   0.0643  693. 1128.   -21.47408
  93200   37.28    -21.42816   0.0283  693.  496.   -21.47794
  93400   37.36    -21.42837   0.0434  693.  762.   -21.48411
  93600   37.44    -21.42857   0.0431  693.  756.   -21.48810
  93800   37.52    -21.42878   0.0370  693.  649.   -21.48928
  94000   37.60    -21.42899   0.0279  693.  490.   -21.49570
  94200   37.68    -21.42920   0.0300  693.  526.   -21.49674
  94400   37.76    -21.42941   0.0259  693.  454.   -21.49854
  94600   37.84    -21.42962   0.0296  692.  520.   -21.50103
  94800   37.92    -21.42983   0.0242  692.  425.   -21.50504
  95000   38.00    -21.43005   0.0298  691.  522.   -21.50549
block <Epot> / <T> :     -21.52509  701.     drift:  0.36D-02   Tbath : 300.
  95200   38.08    -21.43022   0.0447  691.  784.   -21.46224
  95400   38.16    -21.43039   0.0487  691.  855.   -21.46744
  95600   38.24    -21.43057   0.0502  692.  881.   -21.47099
  95800   38.32    -21.43076   0.0426  692.  748.   -21.47661
  96000   38.40    -21.43095   0.0427  692.  749.   -21.48068
  96200   38.48    -21.43113   0.0361  692.  633.   -21.48347
  96400   38.56    -21.43133   0.0312  692.  547.   -21.48721
  96600   38.64    -21.43151   0.0263  692.  461.   -21.49042
  96800   38.72    -21.43170   0.0417  691.  732.   -21.49281
  97000   38.80    -21.43190   0.0315  691.  552.   -21.49719
  97200   38.88    -21.43211   0.0401  691.  703.   -21.49755
  97400   38.96    -21.43232   0.0236  691.  414.   -21.50245
  97600   39.04    -21.43251   0.0272  691.  478.   -21.46987
  97800   39.12    -21.43268   0.0562  691.  986.   -21.46412
  98000   39.20    -21.43288   0.0506  692.  887.   -21.47386
  98200   39.28    -21.43305   0.0430  692.  753.   -21.47499
  98400   39.36    -21.43324   0.0464  692.  813.   -21.48218
  98600   39.44    -21.43343   0.0372  692.  652.   -21.48643
  98800   39.52    -21.43363   0.0383  692.  672.   -21.49018
  99000   39.60    -21.43382   0.0351  692.  616.   -21.49351
  99200   39.68    -21.43401   0.0312  692.  547.   -21.49688
  99400   39.76    -21.43421   0.0263  692.  461.   -21.49926
  99600   39.84    -21.43440   0.0290  692.  508.   -21.50260
  99800   39.92    -21.43458   0.0324  691.  568.   -21.50182
 100000   40.00    -21.43477   0.0256  690.  450.   -21.50377
block <Epot> / <T> :     -21.52444  673.     drift:  0.98D-03   Tbath : 300.
 100200   40.08    -21.43493   0.0454  690.  797.   -21.46098
 100400   40.16    -21.43509   0.0452  691.  793.   -21.46767
 100600   40.24    -21.43524   0.0391  691.  685.   -21.47157
 100800   40.32    -21.43540   0.0432  691.  758.   -21.47561
 101000   40.40    -21.43556   0.0349  691.  611.   -21.48019
 101200   40.48    -21.43573   0.0371  691.  650.   -21.48205
 101400   40.56    -21.43588   0.0249  691.  438.   -21.48389
 101600   40.64    -21.43603   0.0244  690.  428.   -21.48560
 101800   40.72    -21.43619   0.0247  690.  433.   -21.48859
 102000   40.80    -21.43635   0.0219  690.  384.   -21.49163
 102200   40.88    -21.43651   0.0312  689.  547.   -21.49152
 102400   40.96    -21.43667   0.0201  688.  352.   -21.49460
 102600   41.04    -21.43681   0.0345  688.  606.   -21.46092
 102800   41.12    -21.43692   0.0413  688.  724.   -21.45245
 103000   41.20    -21.43704   0.0490  688.  859.   -21.45812
 103200   41.28    -21.43718   0.0492  689.  864.   -21.46351
 103400   41.36    -21.43733   0.0342  689.  600.   -21.46899
 103600   41.44    -21.43748   0.0412  689.  722.   -21.47319
 103800   41.52    -21.43764   0.0483  689.  848.   -21.47854
 104000   41.60    -21.43779   0.0405  689.  710.   -21.47975
 104200   41.68    -21.43795   0.0419  689.  735.   -21.48456
 104400   41.76    -21.43812   0.0338  689.  594.   -21.48976
 104600   41.84    -21.43828   0.0286  689.  501.   -21.49191
 104800   41.92    -21.43844   0.0240  688.  421.   -21.49246
 105000   42.00    -21.43860   0.0341  688.  598.   -21.49540
block <Epot> / <T> :     -21.51522  641.     drift:  0.12D-02   Tbath : 300.
 105200   42.08    -21.43874   0.0514  688.  902.   -21.45592
 105400   42.16    -21.43887   0.0392  688.  688.   -21.46076
 105600   42.24    -21.43900   0.0375  689.  657.   -21.46621
 105800   42.32    -21.43913   0.0321  689.  563.   -21.46901
 106000   42.40    -21.43925   0.0292  688.  512.   -21.47155
 106200   42.48    -21.43937   0.0347  688.  609.   -21.47458
 106400   42.56    -21.43951   0.0405  688.  711.   -21.47812
 106600   42.64    -21.43967   0.0356  688.  625.   -21.48273
 106800   42.72    -21.43980   0.0241  688.  424.   -21.48403
 107000   42.80    -21.43992   0.0175  687.  306.   -21.48418
 107200   42.88    -21.44004   0.0283  686.  497.   -21.48462
 107400   42.96    -21.44019   0.0345  686.  605.   -21.48815
 107600   43.04    -21.44033   0.0372  686.  653.   -21.45617
 107800   43.12    -21.44043   0.0479  686.  840.   -21.44987
 108000   43.20    -21.44055   0.0529  687.  928.   -21.45722
 108200   43.28    -21.44067   0.0520  687.  912.   -21.46148
 108400   43.36    -21.44080   0.0237  687.  416.   -21.46708
 108600   43.44    -21.44091   0.0361  687.  633.   -21.46896
 108800   43.52    -21.44102   0.0289  687.  507.   -21.47211
 109000   43.60    -21.44114   0.0336  686.  589.   -21.47440
 109200   43.68    -21.44126   0.0241  686.  423.   -21.47699
 109400   43.76    -21.44139   0.0367  686.  643.   -21.47897
 109600   43.84    -21.44152   0.0356  686.  624.   -21.48270
 109800   43.92    -21.44167   0.0439  686.  771.   -21.48663
 110000   44.00    -21.44183   0.0361  686.  634.   -21.48994
block <Epot> / <T> :     -21.50953  638.     drift:  0.56D-02   Tbath : 300.
 110200   44.08    -21.44193   0.0363  686.  636.   -21.44602
 110400   44.16    -21.44204   0.0558  686.  978.   -21.45081
 110600   44.24    -21.44215   0.0497  686.  871.   -21.45726
 110800   44.32    -21.44225   0.0384  686.  674.   -21.46214
 111000   44.40    -21.44237   0.0547  687.  959.   -21.46572
 111200   44.48    -21.44250   0.0394  687.  692.   -21.47092
 111400   44.56    -21.44262   0.0439  687.  770.   -21.47354
 111600   44.64    -21.44275   0.0370  687.  649.   -21.47895
 111800   44.72    -21.44289   0.0293  687.  515.   -21.48249
 112000   44.80    -21.44301   0.0288  686.  505.   -21.48419
 112200   44.88    -21.44313   0.0291  686.  511.   -21.48462
 112400   44.96    -21.44325   0.0228  686.  400.   -21.48743
 112600   45.04    -21.44337   0.0121  685.  212.   -21.45684
 112800   45.12    -21.44345   0.0521  685.  915.   -21.44651
 113000   45.20    -21.44354   0.0489  685.  858.   -21.45101
 113200   45.28    -21.44365   0.0464  686.  814.   -21.45565
 113400   45.36    -21.44375   0.0403  686.  707.   -21.46060
 113600   45.44    -21.44384   0.0309  686.  541.   -21.46280
 113800   45.52    -21.44393   0.0279  685.  490.   -21.46637
 114000   45.60    -21.44403   0.0404  685.  709.   -21.46985
 114200   45.68    -21.44414   0.0301  685.  527.   -21.47378
 114400   45.76    -21.44425   0.0349  685.  613.   -21.47467
 114600   45.84    -21.44437   0.0314  685.  551.   -21.47822
 114800   45.92    -21.44448   0.0259  685.  455.   -21.48051
 115000   46.00    -21.44459   0.0279  684.  489.   -21.48221
block <Epot> / <T> :     -21.50538  648.     drift:  0.63D-02   Tbath : 300.
 115200   46.08    -21.44468   0.0357  684.  627.   -21.44099
 115400   46.16    -21.44474   0.0309  684.  542.   -21.44310
 115600   46.24    -21.44480   0.0439  684.  770.   -21.44702
 115800   46.32    -21.44489   0.0387  684.  678.   -21.45108
 116000   46.40    -21.44499   0.0403  684.  706.   -21.45838
 116200   46.48    -21.44508   0.0288  684.  504.   -21.45961
 116400   46.56    -21.44516   0.0448  684.  785.   -21.46429
 116600   46.64    -21.44526   0.0322  684.  564.   -21.46773
 116800   46.72    -21.44536   0.0357  684.  626.   -21.47028
 117000   46.80    -21.44546   0.0277  684.  487.   -21.47218
 117200   46.88    -21.44556   0.0258  684.  452.   -21.47599
 117400   46.96    -21.44566   0.0307  683.  539.   -21.47764
 117600   47.04    -21.44575   0.0223  683.  391.   -21.44804
 117800   47.12    -21.44580   0.0583  683. 1023.   -21.43612
 118000   47.20    -21.44590   0.0662  684. 1161.   -21.44452
 118200   47.28    -21.44600   0.0488  684.  857.   -21.44979
 118400   47.36    -21.44610   0.0438  684.  769.   -21.45688
 118600   47.44    -21.44619   0.0383  684.  672.   -21.45962
 118800   47.52    -21.44627   0.0329  684.  577.   -21.46413
 119000   47.60    -21.44634   0.0302  684.  529.   -21.46427
 119200   47.68    -21.44643   0.0358  684.  627.   -21.46774
 119400   47.76    -21.44652   0.0371  684.  652.   -21.47064
 119600   47.84    -21.44663   0.0348  684.  611.   -21.47454
 119800   47.92    -21.44674   0.0239  683.  419.   -21.47701
 120000   48.00    -21.44683   0.0321  683.  563.   -21.47881
block <Epot> / <T> :     -21.49837  656.     drift:  0.55D-02   Tbath : 300.
 120200   48.08    -21.44689   0.0435  683.  763.   -21.43511
 120400   48.16    -21.44697   0.0549  683.  962.   -21.44198
 120600   48.24    -21.44704   0.0457  683.  802.   -21.44524
 120800   48.32    -21.44710   0.0437  683.  767.   -21.45185
 121000   48.40    -21.44717   0.0399  683.  700.   -21.45506
 121200   48.48    -21.44726   0.0590  683. 1035.   -21.45665
 121400   48.56    -21.44735   0.0393  684.  689.   -21.46044
 121600   48.64    -21.44744   0.0399  684.  700.   -21.46465
 121800   48.72    -21.44754   0.0355  684.  623.   -21.46758
 122000   48.80    -21.44763   0.0309  683.  542.   -21.47190
 122200   48.88    -21.44772   0.0280  683.  491.   -21.47313
 122400   48.96    -21.44782   0.0346  683.  607.   -21.47752
 122600   49.04    -21.44790   0.0274  683.  480.   -21.44726
 122800   49.12    -21.44795   0.0511  683.  897.   -21.43546
 123000   49.20    -21.44801   0.0516  683.  905.   -21.44131
 123200   49.28    -21.44809   0.0611  683. 1071.   -21.44700
 123400   49.36    -21.44818   0.0421  684.  739.   -21.45273
 123600   49.44    -21.44825   0.0351  683.  615.   -21.45524
 123800   49.52    -21.44832   0.0376  683.  659.   -21.45933
 124000   49.60    -21.44840   0.0371  683.  651.   -21.46463
 124200   49.68    -21.44849   0.0423  683.  742.   -21.46826
 124400   49.76    -21.44858   0.0286  683.  502.   -21.46988
 124600   49.84    -21.44867   0.0305  683.  535.   -21.47448
 124800   49.92    -21.44875   0.0194  683.  340.   -21.47345
 average properties 
 Epot               :  -21.4488270284732     
 Epot (accurate SCC):  -21.4489968009570     
 Ekin               :  3.889013059240300E-002
 Etot               :  -21.4099368978808     
 T                  :   682.252418200032     
 thermostating problem
 normal exit of md()

------------------------------------------------------------------------
 * finished run on 2021/03/15 at 00:22:09.567     
------------------------------------------------------------------------
 total:
 * wall-time:     0 d,  0 h, 25 min,  0.941 sec
 *  cpu-time:     0 d,  0 h, 24 min, 39.164 sec
 * ratio c/w:     0.985 speedup
 SCF:
 * wall-time:     0 d,  0 h,  0 min,  0.933 sec
 *  cpu-time:     0 d,  0 h,  0 min,  0.036 sec
 * ratio c/w:     0.039 speedup
 MD:
 * wall-time:     0 d,  0 h, 24 min, 58.893 sec
 *  cpu-time:     0 d,  0 h, 24 min, 39.088 sec
 * ratio c/w:     0.987 speedup

