      -----------------------------------------------------------      
     |                   =====================                   |     
     |                           x T B                           |     
     |                   =====================                   |     
     |                         S. Grimme                         |     
     |          Mulliken Center for Theoretical Chemistry        |     
     |                    University of Bonn                     |     
     |                 Version 6.1.4 (SAW190525)                 |     
      -----------------------------------------------------------      

   This program is distributed in the hope that it will be useful,
   but WITHOUT ANY WARRANTY; without even the implied warranty of
   MERCHANTABILITY or FITNESS FOR A PARTICULAR PURPOSE.
   
   FOR NON-COMMERCIAL, ACADEMIA USE ONLY.
   
   Cite this work as:
   S. Grimme, C. Bannwarth, P. Shushkov, J. Comput. Theory Chem., 2017,
   13, 1989-2009. DOI: 10.1021/acs.jctc.7b00118
   C. Bannwarth, S. Ehlert and S. Grimme., J. Comput. Theory Chem., 2019,
   just accepted. DOI: 10.1021/acs.jctc.8b01176
   
   for sTDA-xTB:
   S. Grimme and C. Bannwarth, J. Chem. Phys., 2016, 145, 054103.
   DOI: 10.1063/1.4959605
   
   in the mass-spec context:
   V. Asgeirsson, C. Bauer and S. Grimme, Chem. Sci., 2017, 8, 4879.
   DOI: 10.1039/c7sc00601b
   
   for metadynamics refer to:
   S. Grimme, J. Chem. Theory Comput. Article ASAP, 2019,
   DOI: 10.1021/acs.jctc.9b00143
   
   with help from (in alphabetical order)
   C. Bannwarth, F. Bohle, G. Brandenburg, E. Caldeweyher, M. Checinski,
   S. Dohm, S. Ehlert, S. Ehrlich, F. März, H. Neugebauer, J. Pisarek,
   P. Pracht, P. Shushkov, and S. Spicher.
   
 * started run on 2021/03/14 at 23:56:06.475     

           -------------------------------------------------
          |                Calculation Setup                |
           -------------------------------------------------

          program call               : /opt/xtb/6.1/xtb-190527/bin/xtb 1.xyz --md --input md.inp --gfn2
          hostname                   : mnode007
          coordinate file            : 1.xyz
          omp threads                :                     1
          number of atoms            :                    12
          number of electrons        :                    36
          charge                     :                     0
          spin                       :                   0.0
          first test random number   :      0.66540622504406

spherical wallpotenial with radius    3.5480491 Å

########################################################################
# WARNING! Please study the warnings concerning your input carefully
#  - XTBPATH is not set, using XTBHOME instead
########################################################################

           ------------------------------------------------- 
          |                 G F N 2 - x T B                 |
          | Geometry, Frequencies, Noncovalent interactions |
          |            JCTC 2018 parametrisation            |
           ------------------------------------------------- 
             k(s)              :                1.8500
             k(p)              :                2.2300
             k(d)              :                2.2300
             k(f)              :                2.0000
             kEN (H0ij)        :               -2.0000
             D4 a1             :                0.5200
             D4 a2             :                5.0000
             D4 s6             :                1.0000
             D4 s8             :                2.7000
             D4 s9             :                5.0000
             alphaj            :                2.0000

  Z AO/shell   Hii/eV     exponent
  1     Wed Apr 25 08:07:45 CEST 2018   EN: 2.200 GM2: 0.406  GM3: 0.0800  RAES: 1.40
     1s    -10.707211    1.230000
  6     Wed Apr 25 08:07:45 CEST 2018   EN: 2.550 GM2: 0.538  GM3: 0.1500  RAES: 3.00
     2s    -13.970922    2.096432
     2p    -10.063292    1.800000
  8     Wed Apr 25 08:07:45 CEST 2018   EN: 3.440 GM2: 0.452  GM3:-0.0517  RAES: 1.80
     2s    -20.229985    2.439742
     2p    -15.503117    2.137023


            Z     q(EN)     CN     RAES       Cart. coordinates
     1  C   4.0    0.08    2.99    3.02    -1.91570     2.78665     1.22692
     2  O   6.0   -0.35    1.00    1.80    -4.04772     3.58083     1.67954
     3  C   4.0   -0.11    3.98    3.58    -1.26255     1.32276    -1.12024
     4  H   1.0    0.14    0.99    1.43    -0.32207     3.27431     2.48040
     5  C   4.0   -0.02    3.98    3.59     0.55856    -0.79679    -0.48070
     6  H   1.0    0.11    0.99    1.43    -0.37905     2.63973    -2.44744
     7  H   1.0    0.15    0.99    1.43    -3.00937     0.58155    -1.94419
     8  O   6.0   -0.19    1.91    1.82    -0.75116    -2.69873     0.91331
     9  H   1.0    0.13    0.99    1.43     2.15648    -0.10756     0.64248
    10  H   1.0    0.13    0.99    1.43     1.28267    -1.64355    -2.22564
    11  O   6.0   -0.35    1.92    1.82     1.13106    -4.62091     1.48079
    12  H   1.0    0.28    0.99    1.43     0.72223    -4.78692     3.26915

           ------------------------------------------------- 
          |        Self-Consistent Charge Iterations        |
           ------------------------------------------------- 

          ...................................................
          :                      SETUP                      :
          :.................................................:
          :  # basis functions                  30          :
          :  # atomic orbitals                  30          :
          :  # shells                           18          :
          :  # electrons                        36          :
          :  max. iterations                   250          :
          :  Hamiltonian                  GFN2-xTB          :
          :  restarted?                      false          :
          :  GBSA solvation                  false          :
          :  PC potential                    false          :
          :  electronic temp.          300.0000000     K    :
          :  accuracy                    1.0000000          :
          :  -> integral cutoff          0.2500000E+02      :
          :  -> integral neglect         0.1000000E-07      :
          :  -> SCF convergence          0.1000000E-05 Eh   :
          :  -> wf. convergence          0.1000000E-03 e    :
          :  Broyden damping             0.4000000          :
          ...................................................

 iter      E             dE          RMSdq      gap      omega  full diag
   1    -21.6798414 -0.216798E+02  0.500E+00    4.35       0.0  T
   2    -21.7138279 -0.339865E-01  0.260E+00    3.40       1.0  T
   3    -21.7150691 -0.124114E-02  0.171E+00    3.93       1.0  T
   4    -21.7228575 -0.778839E-02  0.162E-01    3.61       1.0  T
   5    -21.7229443 -0.868466E-04  0.852E-02    3.65       1.0  T
   6    -21.7229542 -0.987884E-05  0.320E-02    3.64       1.0  T
   7    -21.7229546 -0.463026E-06  0.813E-03    3.64       3.5  T
   8    -21.7229550 -0.401063E-06  0.291E-03    3.64       9.9  T
   9    -21.7229550  0.709556E-08  0.130E-03    3.64      22.2  T
  10    -21.7229551 -0.125459E-07  0.322E-04    3.64      89.8  T
  11    -21.7229551 -0.766665E-09  0.117E-04    3.64     246.4  T

   *** convergence criteria satisfied after 11 iterations ***

         #    Occupation            Energy/Eh            Energy/eV
      -------------------------------------------------------------
         1        2.0000           -0.7335653             -19.9613
       ...           ...                  ...                  ...
        12        2.0000           -0.5380117             -14.6400
        13        2.0000           -0.5194079             -14.1338
        14        2.0000           -0.4993596             -13.5883
        15        2.0000           -0.4846392             -13.1877
        16        2.0000           -0.4813348             -13.0978
        17        2.0000           -0.4339753             -11.8091
        18        2.0000           -0.4170985             -11.3498 (HOMO)
        19                         -0.2832549              -7.7078 (LUMO)
        20                         -0.1870786              -5.0907
        21                          0.0310700               0.8455
        22                          0.0754755               2.0538
        23                          0.0894884               2.4351
       ...                                ...                  ...
        30                          0.5107529              13.8983
      -------------------------------------------------------------
                  HL-Gap            0.1338435 Eh            3.6421 eV
             Fermi-level           -0.3501767 Eh           -9.5288 eV

 SCC (total)                   0 d,  0 h,  0 min,  0.273 sec
 SCC setup                      ...        0 min,  0.001 sec (  0.335%)
 Dispersion                     ...        0 min,  0.000 sec (  0.134%)
 integral evaluation            ...        0 min,  0.009 sec (  3.186%)
 zeroth order Hamiltonian       ...        0 min,  0.062 sec ( 22.599%)
 iterations                     ...        0 min,  0.016 sec (  5.839%)
 molecular gradient             ...        0 min,  0.005 sec (  1.987%)
 printout                       ...        0 min,  0.180 sec ( 65.898%)

         :::::::::::::::::::::::::::::::::::::::::::::::::::::
         ::                     SUMMARY                     ::
         :::::::::::::::::::::::::::::::::::::::::::::::::::::
         :: total energy              -21.559540808401 Eh   ::
         :: gradient norm               0.079019133354 Eh/α ::
         :: HOMO-LUMO gap               3.642067721313 eV   ::
         ::.................................................::
         :: SCC energy                -21.722955052244 Eh   ::
         :: -> isotropic ES             0.049822764723 Eh   ::
         :: -> anisotropic ES          -0.004922659158 Eh   ::
         :: -> anisotropic XC          -0.002335444728 Eh   ::
         :: -> dispersion              -0.005627057700 Eh   ::
         :: repulsion energy            0.163402593637 Eh   ::
         :: add. restraining            0.000003931824 Eh   ::
         :::::::::::::::::::::::::::::::::::::::::::::::::::::

           -------------------------------------------------
          |                Property Printout                |
           -------------------------------------------------

    * Orbital Energies and Occupations

         #    Occupation            Energy/Eh            Energy/eV
      -------------------------------------------------------------
         1        2.0000           -0.7335653             -19.9613
       ...           ...                  ...                  ...
         6        2.0000           -0.6159936             -16.7620
         7        2.0000           -0.6087256             -16.5643
         8        2.0000           -0.5940138             -16.1639
         9        2.0000           -0.5795759             -15.7711
        10        2.0000           -0.5535582             -15.0631
        11        2.0000           -0.5498741             -14.9628
        12        2.0000           -0.5380117             -14.6400
        13        2.0000           -0.5194079             -14.1338
        14        2.0000           -0.4993596             -13.5883
        15        2.0000           -0.4846392             -13.1877
        16        2.0000           -0.4813348             -13.0978
        17        2.0000           -0.4339753             -11.8091
        18        2.0000           -0.4170985             -11.3498 (HOMO)
        19                         -0.2832549              -7.7078 (LUMO)
        20                         -0.1870786              -5.0907
        21                          0.0310700               0.8455
        22                          0.0754755               2.0538
        23                          0.0894884               2.4351
        24                          0.1100354               2.9942
        25                          0.1197905               3.2597
        26                          0.1331101               3.6221
        27                          0.1959403               5.3318
        28                          0.2261662               6.1543
        29                          0.2432423               6.6190
        30                          0.5107529              13.8983
      -------------------------------------------------------------
                  HL-Gap            0.1338435 Eh            3.6421 eV
             Fermi-level           -0.3501767 Eh           -9.5288 eV

   #   Z        covCN         q      C6AA      α(0)
   1   6 C      2.761     0.210    23.555     7.948
   2   8 O      0.856    -0.319    20.130     6.015
   3   6 C      3.801    -0.090    22.218     6.711
   4   1 H      0.923     0.037     2.493     2.469
   5   6 C      3.681     0.085    19.368     6.303
   6   1 H      0.924     0.086     1.914     2.164
   7   1 H      0.924     0.095     1.827     2.114
   8   8 O      1.753    -0.218    17.607     5.666
   9   1 H      0.924     0.048     2.341     2.393
  10   1 H      0.924     0.060     2.200     2.320
  11   8 O      1.712    -0.323    19.402     5.947
  12   1 H      0.804     0.329     0.641     1.258

 Mol. C6AA /au·bohr⁶  :       1229.841888
 Mol. C8AA /au·bohr⁸  :      26141.872452
 Mol. α(0) /au        :         51.306456


Wiberg/Mayer (AO) data.
largest (>0.10) Wiberg bond orders for each atom
          total WBO             WBO to atom ...
     1  C   3.916        O    2 1.927    C    3 1.013    H    4 0.936
     2  O   2.079        C    1 1.927
     3  C   3.992        C    1 1.013    C    5 0.989    H    7 0.963    H    6 0.934
     4  H   0.999        C    1 0.936
     5  C   3.942        C    3 0.989    O    8 0.977    H   10 0.969    H    9 0.968
     6  H   0.993        C    3 0.934
     7  H   0.991        C    3 0.963
     8  O   1.997        C    5 0.977    O   11 0.975
     9  H   0.998        C    5 0.968
    10  H   0.996        C    5 0.969
    11  O   1.903        O    8 0.975    H   12 0.888
    12  H   0.892        O   11 0.888

molecular dipole:
                 x           y           z       tot (Debye)
 q only:        0.936       0.063      -0.230
   full:        1.162       0.057      -0.107       2.970
molecular quadrupole (traceless):
                xx          xy          yy          xz          yz          zz
 q only:       -4.253       4.950      -2.148       3.623      -5.374       6.401
  q+dip:       -5.674       7.616      -3.585       4.931      -5.641       9.259
   full:       -6.108       7.098      -2.632       4.568      -6.823       8.740


           -------------------------------------------------
          | TOTAL ENERGY              -21.559540808401 Eh   |
          | GRADIENT NORM               0.079019133354 Eh/α |
          | HOMO-LUMO GAP               3.642067721313 eV   |
           -------------------------------------------------
           ------------------------------------------------- 
          |               Molecular Dynamics                |
           ------------------------------------------------- 
 trajectories on xtb.trj or xtb.trj.<n>
 
 MD time /ps        :    2.00
 dt /fs             :    0.40
 SCC accuracy       :    2.00
 temperature /K     :  300.00
 max steps          :  5000
 block length (av.) :  5000
 dumpstep(trj) /fs  :   50.00   125
 dumpstep(coords)/fs: 1000.00  2500
 H atoms mass (amu) :     2
 # deg. of freedom  :    25
 SHAKE on. # bonds  :          11  all: F
 Berendsen THERMOSTAT on
         time (ps)    <Epot>      Ekin   <T>   T     Etot
      0    0.00      0.00000   0.0297    0.    0.   -21.52985
est. speed in wall clock h for 100 ps :  0.85
    200    0.08    -21.44431   0.0098  359.  247.   -21.53747
    400    0.16    -21.49808   0.0127  362.  320.   -21.53747
    600    0.24    -21.51606   0.0104  359.  263.   -21.53813
    800    0.32    -21.52502   0.0126  355.  317.   -21.53846
   1000    0.40    -21.53034   0.0150  350.  379.   -21.53892
   1200    0.48    -21.53402   0.0104  349.  262.   -21.53903
   1400    0.56    -21.53671   0.0154  349.  390.   -21.53939
   1600    0.64    -21.53860   0.0117  344.  296.   -21.53948
   1800    0.72    -21.54031   0.0110  347.  277.   -21.53947
   2000    0.80    -21.54140   0.0089  341.  225.   -21.54019
   2200    0.88    -21.54252   0.0130  342.  329.   -21.54006
   2400    0.96    -21.54331   0.0104  338.  262.   -21.53995
   2600    1.04    -21.54403   0.0117  337.  295.   -21.54003
   2800    1.12    -21.54466   0.0069  335.  175.   -21.54059
   3000    1.20    -21.54525   0.0167  335.  422.   -21.54072
   3200    1.28    -21.54574   0.0066  334.  167.   -21.54116
   3400    1.36    -21.54619   0.0181  333.  456.   -21.54034
   3600    1.44    -21.54659   0.0113  332.  287.   -21.54130
   3800    1.52    -21.54689   0.0103  330.  260.   -21.53999
   4000    1.60    -21.54724   0.0116  330.  292.   -21.54120
   4200    1.68    -21.54753   0.0082  329.  208.   -21.54095
   4400    1.76    -21.54783   0.0155  329.  390.   -21.54174
   4600    1.84    -21.54805   0.0115  327.  292.   -21.54082
   4800    1.92    -21.54833   0.0135  328.  342.   -21.54182
 average properties 
 Epot               :  -21.5484781356365     
 Epot (accurate SCC):  -21.5527812348958     
 Ekin               :  1.288519315606077E-002
 Etot               :  -21.5355929424804     
 T                  :   325.506081885895     
 thermostating problem
 normal exit of md()

------------------------------------------------------------------------
 * finished run on 2021/03/14 at 23:57:05.037     
------------------------------------------------------------------------
 total:
 * wall-time:     0 d,  0 h,  0 min, 58.561 sec
 *  cpu-time:     0 d,  0 h,  0 min, 57.056 sec
 * ratio c/w:     0.974 speedup
 SCF:
 * wall-time:     0 d,  0 h,  0 min,  0.273 sec
 *  cpu-time:     0 d,  0 h,  0 min,  0.036 sec
 * ratio c/w:     0.132 speedup
 MD:
 * wall-time:     0 d,  0 h,  0 min, 57.980 sec
 *  cpu-time:     0 d,  0 h,  0 min, 56.992 sec
 * ratio c/w:     0.983 speedup

