      -----------------------------------------------------------      
     |                   =====================                   |     
     |                           x T B                           |     
     |                   =====================                   |     
     |                         S. Grimme                         |     
     |          Mulliken Center for Theoretical Chemistry        |     
     |                    University of Bonn                     |     
     |                 Version 6.1.4 (SAW190525)                 |     
      -----------------------------------------------------------      

   This program is distributed in the hope that it will be useful,
   but WITHOUT ANY WARRANTY; without even the implied warranty of
   MERCHANTABILITY or FITNESS FOR A PARTICULAR PURPOSE.
   
   FOR NON-COMMERCIAL, ACADEMIA USE ONLY.
   
   Cite this work as:
   S. Grimme, C. Bannwarth, P. Shushkov, J. Comput. Theory Chem., 2017,
   13, 1989-2009. DOI: 10.1021/acs.jctc.7b00118
   C. Bannwarth, S. Ehlert and S. Grimme., J. Comput. Theory Chem., 2019,
   just accepted. DOI: 10.1021/acs.jctc.8b01176
   
   for sTDA-xTB:
   S. Grimme and C. Bannwarth, J. Chem. Phys., 2016, 145, 054103.
   DOI: 10.1063/1.4959605
   
   in the mass-spec context:
   V. Asgeirsson, C. Bauer and S. Grimme, Chem. Sci., 2017, 8, 4879.
   DOI: 10.1039/c7sc00601b
   
   for metadynamics refer to:
   S. Grimme, J. Chem. Theory Comput. Article ASAP, 2019,
   DOI: 10.1021/acs.jctc.9b00143
   
   with help from (in alphabetical order)
   C. Bannwarth, F. Bohle, G. Brandenburg, E. Caldeweyher, M. Checinski,
   S. Dohm, S. Ehlert, S. Ehrlich, F. März, H. Neugebauer, J. Pisarek,
   P. Pracht, P. Shushkov, and S. Spicher.
   
 * started run on 2021/03/14 at 23:57:08.536     

           -------------------------------------------------
          |                Calculation Setup                |
           -------------------------------------------------

          program call               : /opt/xtb/6.1/xtb-190527/bin/xtb 0.8_md.xyz --md --input metadyn.inp --gfn 2
          hostname                   : mnode007
          coordinate file            : 0.8_md.xyz
          omp threads                :                     1
          number of atoms            :                    12
          number of electrons        :                    36
          charge                     :                     0
          spin                       :                   0.0
          first test random number   :      0.38775483423805

spherical wallpotenial with radius    3.6488561 Å

########################################################################
# WARNING! Please study the warnings concerning your input carefully
#  - XTBPATH is not set, using XTBHOME instead
########################################################################

           ------------------------------------------------- 
          |                 G F N 2 - x T B                 |
          | Geometry, Frequencies, Noncovalent interactions |
          |            JCTC 2018 parametrisation            |
           ------------------------------------------------- 
             k(s)              :                1.8500
             k(p)              :                2.2300
             k(d)              :                2.2300
             k(f)              :                2.0000
             kEN (H0ij)        :               -2.0000
             D4 a1             :                0.5200
             D4 a2             :                5.0000
             D4 s6             :                1.0000
             D4 s8             :                2.7000
             D4 s9             :                5.0000
             alphaj            :                2.0000

  Z AO/shell   Hii/eV     exponent
  1     Wed Apr 25 08:07:45 CEST 2018   EN: 2.200 GM2: 0.406  GM3: 0.0800  RAES: 1.40
     1s    -10.707211    1.230000
  6     Wed Apr 25 08:07:45 CEST 2018   EN: 2.550 GM2: 0.538  GM3: 0.1500  RAES: 3.00
     2s    -13.970922    2.096432
     2p    -10.063292    1.800000
  8     Wed Apr 25 08:07:45 CEST 2018   EN: 3.440 GM2: 0.452  GM3:-0.0517  RAES: 1.80
     2s    -20.229985    2.439742
     2p    -15.503117    2.137023


            Z     q(EN)     CN     RAES       Cart. coordinates
     1  C   4.0    0.08    2.99    3.02     1.70115     3.61696     0.19176
     2  O   6.0   -0.34    1.00    1.80     2.76313     4.75510     1.91162
     3  C   4.0   -0.10    3.98    3.58    -0.18770     1.53135     0.59324
     4  H   1.0    0.14    0.99    1.43     1.97669     4.44918    -1.70038
     5  C   4.0   -0.05    3.97    3.58     0.30679    -0.98032    -0.69709
     6  H   1.0    0.11    0.99    1.43    -2.08854     1.91092    -0.12730
     7  H   1.0    0.16    0.99    1.43    -0.44973     0.90749     2.54819
     8  O   6.0   -0.18    1.91    1.82     2.23118    -2.52459     0.39285
     9  H   1.0    0.13    0.99    1.43     1.35130    -0.57309    -2.43866
    10  H   1.0    0.12    0.99    1.43    -1.37234    -2.17656    -0.88601
    11  O   6.0   -0.33    1.92    1.82     1.34757    -3.59150     2.76784
    12  H   1.0    0.26    0.99    1.43     0.03035    -4.78196     2.27725

           ------------------------------------------------- 
          |        Self-Consistent Charge Iterations        |
           ------------------------------------------------- 

          ...................................................
          :                      SETUP                      :
          :.................................................:
          :  # basis functions                  30          :
          :  # atomic orbitals                  30          :
          :  # shells                           18          :
          :  # electrons                        36          :
          :  max. iterations                   250          :
          :  Hamiltonian                  GFN2-xTB          :
          :  restarted?                      false          :
          :  GBSA solvation                  false          :
          :  PC potential                    false          :
          :  electronic temp.         6000.0000000     K    :
          :  accuracy                    1.0000000          :
          :  -> integral cutoff          0.2500000E+02      :
          :  -> integral neglect         0.1000000E-07      :
          :  -> SCF convergence          0.1000000E-05 Eh   :
          :  -> wf. convergence          0.1000000E-03 e    :
          :  Broyden damping             0.4000000          :
          ...................................................

 iter      E             dE          RMSdq      gap      omega  full diag
   1    -21.6702265 -0.216702E+02  0.496E+00    4.29       0.0  T
   2    -21.7023194 -0.320929E-01  0.253E+00    3.37       1.0  T
   3    -21.7027552 -0.435805E-03  0.173E+00    3.94       1.0  T
   4    -21.7113735 -0.861828E-02  0.178E-01    3.58       1.0  T
   5    -21.7115502 -0.176679E-03  0.867E-02    3.62       1.0  T
   6    -21.7115572 -0.707884E-05  0.300E-02    3.62       1.0  T
   7    -21.7115585 -0.122356E-05  0.963E-03    3.62       3.0  T
   8    -21.7115588 -0.327393E-06  0.436E-03    3.62       6.6  T
   9    -21.7115588 -0.383045E-07  0.168E-03    3.62      17.2  T
  10    -21.7115588 -0.146807E-07  0.903E-04    3.62      32.0  T
  11    -21.7115588 -0.512560E-08  0.380E-04    3.62      75.9  T

   *** convergence criteria satisfied after 11 iterations ***

         #    Occupation            Energy/Eh            Energy/eV
      -------------------------------------------------------------
         1        2.0000           -0.7361143             -20.0307
       ...           ...                  ...                  ...
        12        1.9999           -0.5382571             -14.6467
        13        1.9997           -0.5152401             -14.0204
        14        1.9991           -0.4930477             -13.4165
        15        1.9988           -0.4872801             -13.2596
        16        1.9975           -0.4722624             -12.8509
        17        1.9894           -0.4449769             -12.1084
        18        1.9486           -0.4146387             -11.2829 (HOMO)
        19        0.0665           -0.2815404              -7.6611 (LUMO)
        20        0.0004           -0.1850042              -5.0342
        21                         -0.0024067              -0.0655
        22                          0.0375441               1.0216
        23                          0.0666165               1.8127
       ...                                ...                  ...
        30                          0.5137196              13.9790
      -------------------------------------------------------------
                  HL-Gap            0.1330983 Eh            3.6218 eV
             Fermi-level           -0.3455576 Eh           -9.4031 eV

 SCC (total)                   0 d,  0 h,  0 min,  0.706 sec
 SCC setup                      ...        0 min,  0.001 sec (  0.094%)
 Dispersion                     ...        0 min,  0.000 sec (  0.056%)
 integral evaluation            ...        0 min,  0.008 sec (  1.172%)
 zeroth order Hamiltonian       ...        0 min,  0.330 sec ( 46.750%)
 iterations                     ...        0 min,  0.011 sec (  1.511%)
 molecular gradient             ...        0 min,  0.005 sec (  0.765%)
 printout                       ...        0 min,  0.350 sec ( 49.644%)

         :::::::::::::::::::::::::::::::::::::::::::::::::::::
         ::                     SUMMARY                     ::
         :::::::::::::::::::::::::::::::::::::::::::::::::::::
         :: total energy              -21.548143286976 Eh   ::
         :: gradient norm               0.093719956061 Eh/α ::
         :: HOMO-LUMO gap               3.621789070107 eV   ::
         ::.................................................::
         :: SCC energy                -21.711558840014 Eh   ::
         :: -> isotropic ES             0.050736561677 Eh   ::
         :: -> anisotropic ES          -0.002909442484 Eh   ::
         :: -> anisotropic XC          -0.002012016729 Eh   ::
         :: -> dispersion              -0.005692119884 Eh   ::
         :: repulsion energy            0.163409202746 Eh   ::
         :: add. restraining            0.000000418606 Eh   ::
         :::::::::::::::::::::::::::::::::::::::::::::::::::::

           -------------------------------------------------
          |                Property Printout                |
           -------------------------------------------------

    * Orbital Energies and Occupations

         #    Occupation            Energy/Eh            Energy/eV
      -------------------------------------------------------------
         1        2.0000           -0.7361143             -20.0307
       ...           ...                  ...                  ...
         6        2.0000           -0.6193096             -16.8523
         7        2.0000           -0.5976488             -16.2629
         8        2.0000           -0.5938216             -16.1587
         9        2.0000           -0.5836884             -15.8830
        10        2.0000           -0.5578737             -15.1805
        11        2.0000           -0.5498279             -14.9616
        12        1.9999           -0.5382571             -14.6467
        13        1.9997           -0.5152401             -14.0204
        14        1.9991           -0.4930477             -13.4165
        15        1.9988           -0.4872801             -13.2596
        16        1.9975           -0.4722624             -12.8509
        17        1.9894           -0.4449769             -12.1084
        18        1.9486           -0.4146387             -11.2829 (HOMO)
        19        0.0665           -0.2815404              -7.6611 (LUMO)
        20        0.0004           -0.1850042              -5.0342
        21                         -0.0024067              -0.0655
        22                          0.0375441               1.0216
        23                          0.0666165               1.8127
        24                          0.1208142               3.2875
        25                          0.1359414               3.6992
        26                          0.1485448               4.0421
        27                          0.1874005               5.0994
        28                          0.2193265               5.9682
        29                          0.2923158               7.9543
        30                          0.5137196              13.9790
      -------------------------------------------------------------
                  HL-Gap            0.1330983 Eh            3.6218 eV
             Fermi-level           -0.3455576 Eh           -9.4031 eV

   #   Z        covCN         q      C6AA      α(0)
   1   6 C      2.756     0.204    23.659     7.965
   2   8 O      0.856    -0.315    20.059     6.005
   3   6 C      3.801    -0.089    22.206     6.709
   4   1 H      0.923     0.041     2.440     2.443
   5   6 C      3.674     0.076    19.543     6.335
   6   1 H      0.924     0.074     2.046     2.237
   7   1 H      0.924     0.097     1.816     2.108
   8   8 O      1.753    -0.211    17.497     5.648
   9   1 H      0.924     0.081     1.970     2.195
  10   1 H      0.924     0.048     2.340     2.392
  11   8 O      1.709    -0.313    19.227     5.920
  12   1 H      0.804     0.309     0.695     1.309

 Mol. C6AA /au·bohr⁶  :       1227.557494
 Mol. C8AA /au·bohr⁸  :      26109.840012
 Mol. α(0) /au        :         51.266256


Wiberg/Mayer (AO) data.
largest (>0.10) Wiberg bond orders for each atom
          total WBO             WBO to atom ...
     1  C   3.848        O    2 1.877    C    3 1.008    H    4 0.932
     2  O   2.008        C    1 1.877
     3  C   3.971        C    1 1.008    C    5 0.980    H    7 0.959    H    6 0.942
     4  H   0.984        C    1 0.932
     5  C   3.938        O    8 0.987    C    3 0.980    H   10 0.966    H    9 0.948
     6  H   0.990        C    3 0.942
     7  H   0.989        C    3 0.959
     8  O   2.019        C    5 0.987    O   11 0.970
     9  H   0.992        C    5 0.948
    10  H   0.995        C    5 0.966
    11  O   1.921        O    8 0.970    H   12 0.895
    12  H   0.904        O   11 0.895

molecular dipole:
                 x           y           z       tot (Debye)
 q only:       -1.441      -0.533      -0.988
   full:       -1.769      -0.737      -1.261       5.831
molecular quadrupole (traceless):
                xx          xy          yy          xz          yz          zz
 q only:       -1.588      -0.172       0.196      -5.059      -4.035       1.393
  q+dip:       -1.532       1.272       1.003      -6.868      -5.304       0.529
   full:       -1.510       0.272       0.955      -6.901      -5.365       0.555


           -------------------------------------------------
          | TOTAL ENERGY              -21.548143286976 Eh   |
          | GRADIENT NORM               0.093719956061 Eh/α |
          | HOMO-LUMO GAP               3.621789070107 eV   |
           -------------------------------------------------
           ------------------------------------------------- 
          |                  Meta Dynamics                  |
           ------------------------------------------------- 
 trajectories on xtb.trj or xtb.trj.<n>
 
 MD time /ps        :   50.00
 dt /fs             :    0.40
 SCC accuracy       :    2.00
 temperature /K     :  300.00
 max steps          :125000
 block length (av.) :  5000
 dumpstep(trj) /fs  :   10.00    25
 dumpstep(coords)/fs: 1000.00  2500
 H atoms mass (amu) :     2
 # deg. of freedom  :    36
 SHAKE off
 Berendsen THERMOSTAT on
kpush  :    0.050
alpha  :    0.300
update : 100
         time (ps)    <Epot>      Ekin   <T>   T     Etot
      0    0.00      0.00000   0.0428    0.    0.   -21.45539
est. speed in wall clock h for 100 ps :  1.01
    200    0.08    -21.40284   0.0339  639.  594.   -21.46538
    400    0.16    -21.45567   0.0551  688.  967.   -21.46974
    600    0.24    -21.47562   0.0280  716.  491.   -21.47191
    800    0.32    -21.48676   0.0558  733.  979.   -21.47807
   1000    0.40    -21.49645   0.0476  778.  835.   -21.48430
   1200    0.48    -21.50239   0.0438  782.  768.   -21.48785
   1400    0.56    -21.50626   0.0358  768.  627.   -21.49212
   1600    0.64    -21.50908   0.0433  750.  759.   -21.49483
   1800    0.72    -21.51228   0.0468  747.  822.   -21.49816
   2000    0.80    -21.51472   0.0391  735.  686.   -21.50210
   2200    0.88    -21.51629   0.0220  715.  387.   -21.50320
   2400    0.96    -21.51815   0.0380  705.  666.   -21.50697
   2600    1.04    -21.51893   0.0389  696.  683.   -21.46639
   2800    1.12    -21.51785   0.0313  695.  549.   -21.46694
   3000    1.20    -21.51705   0.0376  693.  660.   -21.47026
   3200    1.28    -21.51698   0.0357  697.  626.   -21.47446
   3400    1.36    -21.51735   0.0300  705.  527.   -21.47832
   3600    1.44    -21.51709   0.0182  697.  320.   -21.48193
   3800    1.52    -21.51671   0.0258  686.  453.   -21.48271
   4000    1.60    -21.51672   0.0351  680.  616.   -21.48576
   4200    1.68    -21.51689   0.0384  676.  673.   -21.48823
   4400    1.76    -21.51704   0.0272  669.  477.   -21.49033
   4600    1.84    -21.51719   0.0319  662.  560.   -21.49249
   4800    1.92    -21.51732   0.0311  655.  545.   -21.49351
block <Epot> / <T> :     -21.52173  646.     drift:  0.99D+02   Tbath : 300.
   5000    2.00    -21.51742   0.0201  646.  353.   -21.49520
   5200    2.08    -21.51610   0.0417  637.  732.   -21.44825
   5400    2.16    -21.51551   0.0381  646.  668.   -21.45338
   5600    2.24    -21.51472   0.0355  647.  622.   -21.45682
   5800    2.32    -21.51426   0.0550  650.  966.   -21.46029
   6000    2.40    -21.51424   0.0411  658.  721.   -21.46652
   6200    2.48    -21.51396   0.0440  658.  772.   -21.46958
   6400    2.56    -21.51376   0.0488  657.  857.   -21.47343
   6600    2.64    -21.51376   0.0323  658.  567.   -21.47717
   6800    2.72    -21.51363   0.0267  655.  468.   -21.47745
   7000    2.80    -21.51349   0.0333  651.  585.   -21.48064
   7200    2.88    -21.51341   0.0326  647.  572.   -21.48331
   7400    2.96    -21.51355   0.0312  646.  546.   -21.48512
   7600    3.04    -21.51329   0.0261  643.  458.   -21.44515
   7800    3.12    -21.51241   0.0457  643.  801.   -21.44404
   8000    3.20    -21.51177   0.0455  644.  799.   -21.44784
   8200    3.28    -21.51154   0.0528  651.  926.   -21.45204
   8400    3.36    -21.51114   0.0313  652.  548.   -21.45716
   8600    3.44    -21.51072   0.0328  651.  575.   -21.45948
   8800    3.52    -21.51022   0.0247  647.  434.   -21.46220
   9000    3.60    -21.50993   0.0195  646.  342.   -21.46467
   9200    3.68    -21.50966   0.0268  644.  471.   -21.46608
   9400    3.76    -21.50950   0.0362  643.  634.   -21.46920
   9600    3.84    -21.50940   0.0295  642.  517.   -21.47287
   9800    3.92    -21.50930   0.0255  640.  447.   -21.47415
  10000    4.00    -21.50921   0.0324  638.  568.   -21.47623
block <Epot> / <T> :     -21.50099  630.     drift:  0.99D+02   Tbath : 300.
  10200    4.08    -21.50851   0.0537  637.  941.   -21.43313
  10400    4.16    -21.50814   0.0397  643.  697.   -21.43749
  10600    4.24    -21.50753   0.0255  643.  448.   -21.44030
  10800    4.32    -21.50701   0.0391  643.  685.   -21.44395
  11000    4.40    -21.50670   0.0414  646.  727.   -21.44811
  11200    4.48    -21.50632   0.0363  645.  637.   -21.45096
  11400    4.56    -21.50603   0.0283  645.  497.   -21.45372
  11600    4.64    -21.50574   0.0326  645.  572.   -21.45710
  11800    4.72    -21.50545   0.0274  643.  480.   -21.45850
  12000    4.80    -21.50519   0.0366  641.  642.   -21.46114
  12200    4.88    -21.50498   0.0213  639.  374.   -21.46320
  12400    4.96    -21.50477   0.0254  637.  445.   -21.46598
  12600    5.04    -21.50438   0.0221  634.  388.   -21.42506
  12800    5.12    -21.50350   0.0282  631.  495.   -21.42137
  13000    5.20    -21.50269   0.0171  629.  299.   -21.42348
  13200    5.28    -21.50200   0.0366  628.  642.   -21.42541
  13400    5.36    -21.50153   0.0503  630.  883.   -21.43005
  13600    5.44    -21.50120   0.0459  633.  805.   -21.43410
  13800    5.52    -21.50086   0.0461  634.  808.   -21.43960
  14000    5.60    -21.50044   0.0343  633.  601.   -21.44225
  14200    5.68    -21.50013   0.0407  633.  714.   -21.44410
  14400    5.76    -21.49992   0.0376  634.  659.   -21.44731
  14600    5.84    -21.49968   0.0339  633.  596.   -21.45013
  14800    5.92    -21.49944   0.0270  632.  474.   -21.45101
  15000    6.00    -21.49925   0.0478  631.  838.   -21.45542
block <Epot> / <T> :     -21.47931  617.     drift:  0.99D+02   Tbath : 300.
  15200    6.08    -21.49877   0.0440  632.  773.   -21.41552
  15400    6.16    -21.49834   0.0466  635.  818.   -21.41811
  15600    6.24    -21.49776   0.0296  634.  519.   -21.42164
  15800    6.32    -21.49719   0.0351  632.  615.   -21.42335
  16000    6.40    -21.49670   0.0306  632.  537.   -21.42813
  16200    6.48    -21.49631   0.0316  632.  554.   -21.42944
  16400    6.56    -21.49581   0.0306  629.  538.   -21.43220
  16600    6.64    -21.49540   0.0356  628.  625.   -21.43340
  16800    6.72    -21.49499   0.0168  626.  295.   -21.43425
  17000    6.80    -21.49458   0.0277  624.  485.   -21.43521
  17200    6.88    -21.49427   0.0273  623.  479.   -21.43752
  17400    6.96    -21.49399   0.0277  622.  486.   -21.43948
  17600    7.04    -21.49358   0.0268  621.  471.   -21.40050
  17800    7.12    -21.49282   0.0203  620.  355.   -21.39760
  18000    7.20    -21.49217   0.0557  620.  978.   -21.40130
  18200    7.28    -21.49167   0.0397  621.  696.   -21.40472
  18400    7.36    -21.49126   0.0363  623.  637.   -21.40769
  18600    7.44    -21.49083   0.0358  624.  629.   -21.41287
  18800    7.52    -21.49049   0.0330  626.  579.   -21.41694
  19000    7.60    -21.49006   0.0277  625.  486.   -21.42151
  19200    7.68    -21.48970   0.0367  625.  644.   -21.42393
  19400    7.76    -21.48940   0.0475  625.  832.   -21.42580
  19600    7.84    -21.48913   0.0319  625.  559.   -21.42866
  19800    7.92    -21.48889   0.0398  625.  698.   -21.43122
  20000    8.00    -21.48866   0.0333  624.  584.   -21.43378
block <Epot> / <T> :     -21.45689  605.     drift:  0.22D-01   Tbath : 300.
  20200    8.08    -21.48809   0.0377  624.  662.   -21.38903
  20400    8.16    -21.48761   0.0424  626.  744.   -21.39442
  20600    8.24    -21.48703   0.0239  625.  419.   -21.39734
  20800    8.32    -21.48643   0.0142  624.  249.   -21.39878
  21000    8.40    -21.48595   0.0338  624.  594.   -21.40149
  21200    8.48    -21.48552   0.0289  624.  506.   -21.40439
  21400    8.56    -21.48509   0.0329  624.  576.   -21.40716
  21600    8.64    -21.48467   0.0330  623.  579.   -21.40931
  21800    8.72    -21.48425   0.0294  622.  517.   -21.41063
  22000    8.80    -21.48384   0.0290  621.  510.   -21.41327
  22200    8.88    -21.48348   0.0242  620.  425.   -21.41511
  22400    8.96    -21.48310   0.0314  618.  551.   -21.41602
  22600    9.04    -21.48265   0.0261  617.  458.   -21.37694
  22800    9.12    -21.48199   0.0432  617.  758.   -21.37460
  23000    9.20    -21.48145   0.0599  618. 1051.   -21.37919
  23200    9.28    -21.48100   0.0403  620.  707.   -21.38388
  23400    9.36    -21.48054   0.0313  621.  549.   -21.38635
  23600    9.44    -21.48011   0.0488  622.  856.   -21.39077
  23800    9.52    -21.47972   0.0324  622.  569.   -21.39617
  24000    9.60    -21.47931   0.0408  622.  716.   -21.39764
  24200    9.68    -21.47891   0.0232  622.  407.   -21.40124
  24400    9.76    -21.47855   0.0386  621.  678.   -21.40136
  24600    9.84    -21.47822   0.0299  621.  524.   -21.40515
  24800    9.92    -21.47789   0.0303  620.  531.   -21.40809
  25000   10.00    -21.47756   0.0354  619.  621.   -21.41023
block <Epot> / <T> :     -21.43311  598.     drift:  0.23D-01   Tbath : 300.
  25200   10.08    -21.47696   0.0399  618.  701.   -21.36384
  25400   10.16    -21.47639   0.0314  619.  550.   -21.36623
  25600   10.24    -21.47588   0.0598  620. 1050.   -21.37023
  25800   10.32    -21.47551   0.0633  622. 1110.   -21.37631
  26000   10.40    -21.47516   0.0437  624.  766.   -21.38216
  26200   10.48    -21.47481   0.0574  625. 1006.   -21.38683
  26400   10.56    -21.47447   0.0254  626.  446.   -21.39028
  26600   10.64    -21.47413   0.0370  626.  649.   -21.39446
  26800   10.72    -21.47381   0.0244  626.  428.   -21.39677
  27000   10.80    -21.47356   0.0464  627.  814.   -21.40023
  27200   10.88    -21.47327   0.0189  627.  331.   -21.40215
  27400   10.96    -21.47299   0.0418  626.  734.   -21.40485
  27600   11.04    -21.47268   0.0326  626.  572.   -21.36756
  27800   11.12    -21.47214   0.0334  626.  585.   -21.36559
  28000   11.20    -21.47166   0.0392  626.  688.   -21.36808
  28200   11.28    -21.47121   0.0382  626.  671.   -21.37248
  28400   11.36    -21.47072   0.0256  626.  448.   -21.37486
  28600   11.44    -21.47024   0.0273  625.  478.   -21.37494
  28800   11.52    -21.46979   0.0264  624.  464.   -21.37804
  29000   11.60    -21.46936   0.0294  623.  516.   -21.37962
  29200   11.68    -21.46893   0.0235  622.  412.   -21.38042
  29400   11.76    -21.46853   0.0182  621.  319.   -21.38255
  29600   11.84    -21.46814   0.0233  620.  409.   -21.38454
  29800   11.92    -21.46775   0.0308  619.  541.   -21.38553
  30000   12.00    -21.46737   0.0221  618.  388.   -21.38601
block <Epot> / <T> :     -21.41640  610.     drift:  0.21D-01   Tbath : 300.
  30200   12.08    -21.46681   0.0508  617.  891.   -21.34209
  30400   12.16    -21.46627   0.0420  618.  736.   -21.34542
  30600   12.24    -21.46580   0.0261  619.  459.   -21.35097
  30800   12.32    -21.46526   0.0196  618.  343.   -21.35222
  31000   12.40    -21.46477   0.0382  618.  671.   -21.35625
  31200   12.48    -21.46432   0.0404  619.  709.   -21.35944
  31400   12.56    -21.46386   0.0350  618.  613.   -21.36209
  31600   12.64    -21.46341   0.0187  618.  328.   -21.36235
  31800   12.72    -21.46297   0.0380  617.  666.   -21.36528
  32000   12.80    -21.46256   0.0317  617.  556.   -21.36811
  32200   12.88    -21.46215   0.0294  616.  516.   -21.36983
  32400   12.96    -21.46184   0.0413  616.  724.   -21.37243
  32600   13.04    -21.46144   0.0234  616.  410.   -21.33535
  32800   13.12    -21.46090   0.0402  617.  705.   -21.33454
  33000   13.20    -21.46045   0.0535  618.  938.   -21.33951
  33200   13.28    -21.45998   0.0402  619.  705.   -21.34442
  33400   13.36    -21.45948   0.0361  619.  634.   -21.34680
  33600   13.44    -21.45902   0.0338  619.  594.   -21.34854
  33800   13.52    -21.45860   0.0500  619.  877.   -21.35111
  34000   13.60    -21.45817   0.0300  619.  526.   -21.35534
  34200   13.68    -21.45775   0.0296  618.  520.   -21.35691
  34400   13.76    -21.45737   0.0269  618.  473.   -21.35918
  34600   13.84    -21.45698   0.0406  618.  713.   -21.36177
  34800   13.92    -21.45659   0.0336  617.  590.   -21.36296
  35000   14.00    -21.45623   0.0302  616.  529.   -21.36330
block <Epot> / <T> :     -21.38936  608.     drift:  0.22D-01   Tbath : 300.
  35200   14.08    -21.45569   0.0279  616.  490.   -21.31858
  35400   14.16    -21.45509   0.0296  615.  519.   -21.32082
  35600   14.24    -21.45454   0.0435  615.  762.   -21.32375
  35800   14.32    -21.45400   0.0284  615.  499.   -21.32655
  36000   14.40    -21.45350   0.0448  615.  786.   -21.32903
  36200   14.48    -21.45306   0.0472  616.  828.   -21.33435
  36400   14.56    -21.45266   0.0378  617.  663.   -21.33637
  36600   14.64    -21.45226   0.0400  617.  701.   -21.34082
  36800   14.72    -21.45187   0.0202  617.  354.   -21.34499
  37000   14.80    -21.45151   0.0284  618.  499.   -21.34974
  37200   14.88    -21.45116   0.0251  618.  440.   -21.35179
  37400   14.96    -21.45081   0.0395  617.  693.   -21.35380
  37600   15.04    -21.45043   0.0391  617.  687.   -21.31696
  37800   15.12    -21.44986   0.0243  617.  426.   -21.31365
  38000   15.20    -21.44934   0.0398  617.  698.   -21.31568
  38200   15.28    -21.44887   0.0375  617.  657.   -21.31938
  38400   15.36    -21.44837   0.0281  617.  493.   -21.32169
  38600   15.44    -21.44794   0.0442  618.  776.   -21.32654
  38800   15.52    -21.44756   0.0415  619.  727.   -21.33060
  39000   15.60    -21.44715   0.0539  619.  946.   -21.33427
  39200   15.68    -21.44680   0.0323  619.  567.   -21.33793
  39400   15.76    -21.44642   0.0357  619.  625.   -21.34043
  39600   15.84    -21.44609   0.0338  619.  593.   -21.34402
  39800   15.92    -21.44575   0.0363  619.  637.   -21.34802
  40000   16.00    -21.44544   0.0339  619.  594.   -21.35045
block <Epot> / <T> :     -21.36990  639.     drift:  0.22D-01   Tbath : 300.
  40200   16.08    -21.44496   0.0301  619.  528.   -21.30437
  40400   16.16    -21.44442   0.0312  619.  547.   -21.30656
  40600   16.24    -21.44390   0.0443  618.  778.   -21.30769
  40800   16.32    -21.44339   0.0333  618.  585.   -21.31096
  41000   16.40    -21.44290   0.0277  617.  485.   -21.31301
  41200   16.48    -21.44242   0.0279  617.  489.   -21.31518
  41400   16.56    -21.44198   0.0359  617.  629.   -21.31857
  41600   16.64    -21.44156   0.0270  617.  474.   -21.32056
  41800   16.72    -21.44113   0.0268  617.  469.   -21.32358
  42000   16.80    -21.44071   0.0233  616.  409.   -21.32522
  42200   16.88    -21.44029   0.0313  615.  548.   -21.32726
  42400   16.96    -21.43987   0.0219  614.  385.   -21.32885
  42600   17.04    -21.43945   0.0311  614.  545.   -21.28916
  42800   17.12    -21.43889   0.0350  614.  614.   -21.28511
  43000   17.20    -21.43834   0.0390  614.  684.   -21.28691
  43200   17.28    -21.43789   0.0627  615. 1100.   -21.29304
  43400   17.36    -21.43748   0.0618  617. 1085.   -21.29888
  43600   17.44    -21.43707   0.0379  618.  664.   -21.30281
  43800   17.52    -21.43665   0.0455  618.  798.   -21.30688
  44000   17.60    -21.43628   0.0447  619.  785.   -21.31119
  44200   17.68    -21.43591   0.0283  619.  497.   -21.31639
  44400   17.76    -21.43556   0.0412  619.  723.   -21.31754
  44600   17.84    -21.43521   0.0397  620.  696.   -21.32358
  44800   17.92    -21.43486   0.0287  619.  503.   -21.32669
  45000   18.00    -21.43450   0.0204  619.  357.   -21.32817
block <Epot> / <T> :     -21.34695  616.     drift:  0.23D-01   Tbath : 300.
  45200   18.08    -21.43403   0.0433  619.  759.   -21.28158
  45400   18.16    -21.43361   0.0488  620.  856.   -21.28746
  45600   18.24    -21.43314   0.0303  620.  532.   -21.29394
  45800   18.32    -21.43269   0.0477  620.  837.   -21.29438
  46000   18.40    -21.43229   0.0413  621.  725.   -21.29885
  46200   18.48    -21.43186   0.0282  621.  494.   -21.30300
  46400   18.56    -21.43146   0.0270  621.  474.   -21.30427
  46600   18.64    -21.43105   0.0248  620.  435.   -21.30530
  46800   18.72    -21.43065   0.0280  620.  491.   -21.31014
  47000   18.80    -21.43027   0.0254  619.  445.   -21.31091
  47200   18.88    -21.42989   0.0225  619.  394.   -21.31308
  47400   18.96    -21.42951   0.0213  618.  373.   -21.31351
  47600   19.04    -21.42910   0.0219  617.  384.   -21.27600
  47800   19.12    -21.42858   0.0354  617.  621.   -21.27111
  48000   19.20    -21.42805   0.0323  617.  567.   -21.27420
  48200   19.28    -21.42755   0.0322  617.  565.   -21.27482
  48400   19.36    -21.42710   0.0424  617.  743.   -21.28033
  48600   19.44    -21.42664   0.0242  617.  424.   -21.28424
  48800   19.52    -21.42619   0.0296  617.  520.   -21.28548
  49000   19.60    -21.42576   0.0382  617.  671.   -21.28723
  49200   19.68    -21.42532   0.0253  616.  444.   -21.28919
  49400   19.76    -21.42488   0.0330  616.  578.   -21.29117
  49600   19.84    -21.42446   0.0318  615.  557.   -21.29229
  49800   19.92    -21.42406   0.0263  615.  462.   -21.29615
  50000   20.00    -21.42366   0.0306  614.  536.   -21.29635
block <Epot> / <T> :     -21.32598  574.     drift:  0.21D-01   Tbath : 300.
  50200   20.08    -21.42315   0.0395  614.  693.   -21.25067
  50400   20.16    -21.42263   0.0469  614.  823.   -21.25417
  50600   20.24    -21.42218   0.0329  615.  577.   -21.26060
  50800   20.32    -21.42167   0.0301  615.  529.   -21.26245
  51000   20.40    -21.42120   0.0415  615.  729.   -21.26487
  51200   20.48    -21.42075   0.0384  615.  674.   -21.26923
  51400   20.56    -21.42033   0.0560  616.  983.   -21.27199
  51600   20.64    -21.41995   0.0421  616.  739.   -21.27847
  51800   20.72    -21.41955   0.0325  617.  571.   -21.28233
  52000   20.80    -21.41913   0.0300  616.  526.   -21.28360
  52200   20.88    -21.41873   0.0448  616.  786.   -21.28583
  52400   20.96    -21.41836   0.0391  616.  686.   -21.28800
  52600   21.04    -21.41798   0.0373  616.  655.   -21.25322
  52800   21.12    -21.41750   0.0382  616.  670.   -21.24790
  53000   21.20    -21.41703   0.0475  617.  833.   -21.25367
  53200   21.28    -21.41656   0.0196  617.  343.   -21.25710
  53400   21.36    -21.41610   0.0331  617.  581.   -21.25975
  53600   21.44    -21.41566   0.0329  617.  577.   -21.26344
  53800   21.52    -21.41522   0.0216  617.  379.   -21.26574
  54000   21.60    -21.41479   0.0352  617.  618.   -21.26893
  54200   21.68    -21.41437   0.0342  616.  600.   -21.27016
  54400   21.76    -21.41395   0.0267  616.  469.   -21.27223
  54600   21.84    -21.41355   0.0341  616.  599.   -21.27423
  54800   21.92    -21.41314   0.0269  615.  472.   -21.27617
  55000   22.00    -21.41273   0.0319  614.  560.   -21.27772
block <Epot> / <T> :     -21.30348  616.     drift:  0.22D-01   Tbath : 300.
  55200   22.08    -21.41223   0.0382  614.  670.   -21.23088
  55400   22.16    -21.41173   0.0556  614.  976.   -21.23486
  55600   22.24    -21.41126   0.0466  615.  818.   -21.23990
  55800   22.32    -21.41083   0.0398  616.  698.   -21.24507
  56000   22.40    -21.41037   0.0348  616.  610.   -21.24850
  56200   22.48    -21.40994   0.0434  616.  761.   -21.25227
  56400   22.56    -21.40953   0.0427  617.  750.   -21.25471
  56600   22.64    -21.40915   0.0571  617. 1002.   -21.25909
  56800   22.72    -21.40879   0.0520  618.  913.   -21.26444
  57000   22.80    -21.40843   0.0196  618.  344.   -21.26685
  57200   22.88    -21.40807   0.0512  618.  898.   -21.27147
  57400   22.96    -21.40773   0.0277  618.  486.   -21.27456
  57600   23.04    -21.40732   0.0325  618.  570.   -21.23523
  57800   23.12    -21.40683   0.0469  618.  823.   -21.23171
  58000   23.20    -21.40640   0.0418  618.  733.   -21.23673
  58200   23.28    -21.40600   0.0273  619.  479.   -21.24102
  58400   23.36    -21.40554   0.0302  619.  529.   -21.24494
  58600   23.44    -21.40513   0.0533  619.  935.   -21.24800
  58800   23.52    -21.40474   0.0385  620.  675.   -21.25182
  59000   23.60    -21.40436   0.0383  620.  673.   -21.25533
  59200   23.68    -21.40398   0.0228  620.  400.   -21.25896
  59400   23.76    -21.40360   0.0319  620.  559.   -21.25913
  59600   23.84    -21.40325   0.0312  620.  547.   -21.26394
  59800   23.92    -21.40290   0.0388  619.  681.   -21.26708
  60000   24.00    -21.40255   0.0320  619.  561.   -21.26886
block <Epot> / <T> :     -21.29045  672.     drift:  0.19D-01   Tbath : 300.
  60200   24.08    -21.40211   0.0542  619.  951.   -21.22497
  60400   24.16    -21.40166   0.0232  619.  407.   -21.22666
  60600   24.24    -21.40122   0.0399  619.  700.   -21.23114
  60800   24.32    -21.40078   0.0281  619.  492.   -21.23303
  61000   24.40    -21.40051   0.1441  622. 2528.   -21.24630
  61200   24.48    -21.40042   0.1034  627. 1813.   -21.26140
  61400   24.56    -21.40029   0.0992  630. 1740.   -21.27405
  61600   24.64    -21.40027   0.0933  634. 1637.   -21.29045
  61800   24.72    -21.40025   0.1227  638. 2152.   -21.29955
  62000   24.80    -21.40032   0.1281  642. 2247.   -21.32275
  62200   24.88    -21.40037   0.1128  645. 1978.   -21.33277
  62400   24.96    -21.40048   0.0711  648. 1248.   -21.34659
  62600   25.04    -21.40058   0.0747  651. 1310.   -21.32442
  62800   25.12    -21.40060   0.0790  653. 1385.   -21.32873
  63000   25.20    -21.40071   0.1226  657. 2150.   -21.34407
  63200   25.28    -21.40085   0.0959  660. 1683.   -21.35799
  63400   25.36    -21.40103   0.0888  663. 1558.   -21.36938
  63600   25.44    -21.40117   0.0658  665. 1154.   -21.37999
  63800   25.52    -21.40137   0.0836  668. 1467.   -21.38739
  64000   25.60    -21.40158   0.0959  670. 1682.   -21.39757
  64200   25.68    -21.40178   0.0524  671.  919.   -21.40403
  64400   25.76    -21.40197   0.0555  672.  974.   -21.41553
  64600   25.84    -21.40218   0.0857  673. 1503.   -21.41774
  64800   25.92    -21.40241   0.0570  674. 1000.   -21.42373
  65000   26.00    -21.40265   0.0407  674.  714.   -21.43206
block <Epot> / <T> :     -21.40425 1338.     drift: -0.22D-01   Tbath : 300.
  65200   26.08    -21.40291   0.1484  677. 2604.   -21.39367
  65400   26.16    -21.40328   0.1264  681. 2217.   -21.42317
  65600   26.24    -21.40368   0.0959  685. 1682.   -21.43030
  65800   26.32    -21.40409   0.0842  688. 1477.   -21.44611
  66000   26.40    -21.40450   0.0906  691. 1589.   -21.45317
  66200   26.48    -21.40491   0.0593  693. 1040.   -21.46469
  66400   26.56    -21.40530   0.0652  694. 1144.   -21.47455
  66600   26.64    -21.40572   0.0555  696.  974.   -21.48420
  66800   26.72    -21.40614   0.0656  697. 1150.   -21.48726
  67000   26.80    -21.40658   0.0710  698. 1246.   -21.49699
  67200   26.88    -21.40703   0.0442  699.  775.   -21.50352
  67400   26.96    -21.40747   0.0545  699.  956.   -21.50823
  67600   27.04    -21.40789   0.0639  699. 1122.   -21.47476
  67800   27.12    -21.40828   0.0840  701. 1474.   -21.47638
  68000   27.20    -21.40869   0.0531  702.  932.   -21.48425
  68200   27.28    -21.40911   0.0661  703. 1159.   -21.49361
  68400   27.36    -21.40957   0.0671  705. 1178.   -21.50152
  68600   27.44    -21.41004   0.0583  706. 1022.   -21.50938
  68800   27.52    -21.41048   0.0427  707.  749.   -21.51517
  69000   27.60    -21.41093   0.0533  707.  935.   -21.51943
  69200   27.68    -21.41140   0.0401  708.  703.   -21.52606
  69400   27.76    -21.41186   0.0406  708.  713.   -21.52832
  69600   27.84    -21.41233   0.0369  708.  647.   -21.53237
  69800   27.92    -21.41280   0.0276  708.  484.   -21.53756
  70000   28.00    -21.41327   0.0368  708.  646.   -21.54045
block <Epot> / <T> :     -21.55175 1142.     drift: -0.86D-01   Tbath : 300.
  70200   28.08    -21.41368   0.0373  708.  654.   -21.50379
  70400   28.16    -21.41407   0.0530  708.  930.   -21.50750
  70600   28.24    -21.41449   0.0554  709.  972.   -21.51360
  70800   28.32    -21.41492   0.0449  709.  787.   -21.51580
  71000   28.40    -21.41531   0.0262  709.  460.   -21.52044
  71200   28.48    -21.41569   0.0385  708.  675.   -21.52346
  71400   28.56    -21.41610   0.0417  708.  732.   -21.52705
  71600   28.64    -21.41653   0.0333  708.  585.   -21.53041
  71800   28.72    -21.41695   0.0292  708.  512.   -21.53383
  72000   28.80    -21.41737   0.0384  708.  673.   -21.53528
  72200   28.88    -21.41780   0.0453  707.  795.   -21.53949
  72400   28.96    -21.41826   0.0411  708.  721.   -21.54369
  72600   29.04    -21.41870   0.0382  707.  670.   -21.51047
  72800   29.12    -21.41908   0.0468  708.  822.   -21.50853
  73000   29.20    -21.41945   0.0498  708.  873.   -21.51422
  73200   29.28    -21.41984   0.0509  708.  894.   -21.51890
  73400   29.36    -21.42023   0.0387  708.  678.   -21.52253
  73600   29.44    -21.42061   0.0297  708.  521.   -21.52507
  73800   29.52    -21.42099   0.0406  708.  713.   -21.52852
  74000   29.60    -21.42139   0.0313  708.  549.   -21.53180
  74200   29.68    -21.42177   0.0284  707.  498.   -21.53372
  74400   29.76    -21.42214   0.0315  707.  552.   -21.53511
  74600   29.84    -21.42253   0.0305  706.  535.   -21.53776
  74800   29.92    -21.42291   0.0220  706.  385.   -21.53992
  75000   30.00    -21.42329   0.0311  705.  545.   -21.54093
block <Epot> / <T> :     -21.56347  664.     drift: -0.97D-01   Tbath : 300.
  75200   30.08    -21.42362   0.0490  705.  859.   -21.50041
  75400   30.16    -21.42395   0.0412  705.  722.   -21.50388
  75600   30.24    -21.42429   0.0304  705.  534.   -21.50886
  75800   30.32    -21.42463   0.0451  705.  792.   -21.51296
  76000   30.40    -21.42498   0.0464  705.  815.   -21.51845
  76200   30.48    -21.42533   0.0337  705.  591.   -21.52054
  76400   30.56    -21.42568   0.0406  705.  713.   -21.52571
  76600   30.64    -21.42604   0.0271  705.  475.   -21.52796
  76800   30.72    -21.42638   0.0317  704.  556.   -21.53018
  77000   30.80    -21.42674   0.0372  704.  653.   -21.53335
  77200   30.88    -21.42709   0.0313  704.  549.   -21.53426
  77400   30.96    -21.42745   0.0224  703.  393.   -21.53787
  77600   31.04    -21.42779   0.0314  703.  551.   -21.50235
  77800   31.12    -21.42805   0.0533  703.  935.   -21.49454
  78000   31.20    -21.42837   0.0573  703. 1004.   -21.50029
  78200   31.28    -21.42868   0.0411  703.  720.   -21.50603
  78400   31.36    -21.42899   0.0340  704.  597.   -21.50842
  78600   31.44    -21.42930   0.0324  703.  568.   -21.51256
  78800   31.52    -21.42959   0.0331  703.  580.   -21.51528
  79000   31.60    -21.42989   0.0412  703.  723.   -21.51777
  79200   31.68    -21.43018   0.0299  702.  525.   -21.52027
  79400   31.76    -21.43050   0.0345  702.  606.   -21.52411
  79600   31.84    -21.43082   0.0384  702.  674.   -21.52603
  79800   31.92    -21.43114   0.0275  701.  482.   -21.52710
  80000   32.00    -21.43145   0.0323  701.  567.   -21.53159
block <Epot> / <T> :     -21.55384  637.     drift: -0.46D-01   Tbath : 300.
  80200   32.08    -21.43172   0.0381  700.  668.   -21.48694
  80400   32.16    -21.43198   0.0598  701. 1048.   -21.49117
  80600   32.24    -21.43225   0.0358  701.  627.   -21.49777
  80800   32.32    -21.43251   0.0382  701.  670.   -21.50043
  81000   32.40    -21.43278   0.0280  701.  491.   -21.50506
  81200   32.48    -21.43306   0.0425  701.  746.   -21.50792
  81400   32.56    -21.43333   0.0364  701.  638.   -21.51109
  81600   32.64    -21.43360   0.0311  700.  546.   -21.51453
  81800   32.72    -21.43388   0.0306  700.  537.   -21.51671
  82000   32.80    -21.43416   0.0358  700.  628.   -21.51728
  82200   32.88    -21.43443   0.0228  699.  401.   -21.51913
  82400   32.96    -21.43470   0.0263  698.  462.   -21.52235
  82600   33.04    -21.43496   0.0282  698.  495.   -21.48744
  82800   33.12    -21.43518   0.0523  698.  917.   -21.48166
  83000   33.20    -21.43538   0.0485  698.  852.   -21.48645
  83200   33.28    -21.43561   0.0426  698.  748.   -21.48975
  83400   33.36    -21.43582   0.0388  698.  681.   -21.49214
  83600   33.44    -21.43605   0.0370  698.  648.   -21.49502
  83800   33.52    -21.43628   0.0441  697.  774.   -21.49894
  84000   33.60    -21.43651   0.0355  697.  624.   -21.50100
  84200   33.68    -21.43677   0.0503  697.  882.   -21.50596
  84400   33.76    -21.43703   0.0314  697.  550.   -21.51017
  84600   33.84    -21.43727   0.0271  697.  476.   -21.51145
  84800   33.92    -21.43752   0.0347  696.  609.   -21.51402
  85000   34.00    -21.43778   0.0261  696.  457.   -21.51856
block <Epot> / <T> :     -21.53899  621.     drift:  0.48D-02   Tbath : 300.
  85200   34.08    -21.43797   0.0345  696.  605.   -21.47329
  85400   34.16    -21.43814   0.0439  695.  769.   -21.47466
  85600   34.24    -21.43835   0.0644  696. 1129.   -21.47961
  85800   34.32    -21.43859   0.0496  697.  870.   -21.48824
  86000   34.40    -21.43881   0.0407  697.  714.   -21.49197
  86200   34.48    -21.43902   0.0372  697.  653.   -21.49565
  86400   34.56    -21.43926   0.0480  697.  843.   -21.50120
  86600   34.64    -21.43951   0.0330  697.  579.   -21.50474
  86800   34.72    -21.43973   0.0267  697.  469.   -21.50880
  87000   34.80    -21.43994   0.0195  696.  343.   -21.50917
  87200   34.88    -21.44016   0.0295  695.  518.   -21.51130
  87400   34.96    -21.44040   0.0451  695.  792.   -21.51288
  87600   35.04    -21.44064   0.0323  695.  566.   -21.47992
  87800   35.12    -21.44080   0.0398  695.  698.   -21.47238
  88000   35.20    -21.44100   0.0556  696.  976.   -21.47897
  88200   35.28    -21.44123   0.0415  696.  729.   -21.48546
  88400   35.36    -21.44142   0.0266  696.  467.   -21.48819
  88600   35.44    -21.44159   0.0326  696.  572.   -21.49098
  88800   35.52    -21.44178   0.0417  696.  732.   -21.49254
  89000   35.60    -21.44198   0.0425  695.  746.   -21.49792
  89200   35.68    -21.44220   0.0255  695.  448.   -21.50077
  89400   35.76    -21.44241   0.0296  695.  519.   -21.50408
  89600   35.84    -21.44261   0.0237  695.  415.   -21.50603
  89800   35.92    -21.44281   0.0237  694.  415.   -21.50849
  90000   36.00    -21.44304   0.0375  694.  658.   -21.50957
block <Epot> / <T> :     -21.53241  659.     drift:  0.11D-01   Tbath : 300.
  90200   36.08    -21.44321   0.0456  694.  800.   -21.46924
  90400   36.16    -21.44339   0.0519  694.  910.   -21.47387
  90600   36.24    -21.44355   0.0317  694.  557.   -21.47690
  90800   36.32    -21.44373   0.0364  695.  639.   -21.48329
  91000   36.40    -21.44391   0.0368  695.  645.   -21.48595
  91200   36.48    -21.44409   0.0351  694.  615.   -21.49108
  91400   36.56    -21.44427   0.0277  694.  485.   -21.49481
  91600   36.64    -21.44446   0.0355  694.  622.   -21.49671
  91800   36.72    -21.44464   0.0211  694.  371.   -21.49846
  92000   36.80    -21.44482   0.0322  693.  565.   -21.50099
  92200   36.88    -21.44502   0.0299  693.  524.   -21.50409
  92400   36.96    -21.44521   0.0282  693.  494.   -21.50499
  92600   37.04    -21.44539   0.0332  692.  582.   -21.47240
  92800   37.12    -21.44551   0.0347  692.  609.   -21.46469
  93000   37.20    -21.44564   0.0331  692.  581.   -21.46896
  93200   37.28    -21.44581   0.0604  693. 1059.   -21.47562
  93400   37.36    -21.44598   0.0422  693.  740.   -21.47944
  93600   37.44    -21.44615   0.0358  693.  627.   -21.48470
  93800   37.52    -21.44633   0.0431  693.  757.   -21.48931
  94000   37.60    -21.44650   0.0493  693.  864.   -21.49104
  94200   37.68    -21.44668   0.0477  693.  837.   -21.49518
  94400   37.76    -21.44686   0.0267  693.  468.   -21.49701
  94600   37.84    -21.44704   0.0269  692.  472.   -21.50037
  94800   37.92    -21.44720   0.0276  692.  484.   -21.50283
  95000   38.00    -21.44739   0.0264  692.  463.   -21.50339
block <Epot> / <T> :     -21.52562  651.     drift:  0.91D-02   Tbath : 300.
  95200   38.08    -21.44753   0.0536  692.  940.   -21.46137
  95400   38.16    -21.44767   0.0393  692.  689.   -21.46691
  95600   38.24    -21.44780   0.0260  692.  455.   -21.47065
  95800   38.32    -21.44792   0.0489  692.  858.   -21.47380
  96000   38.40    -21.44806   0.0296  692.  519.   -21.47597
  96200   38.48    -21.44820   0.0370  692.  649.   -21.48122
  96400   38.56    -21.44834   0.0305  691.  536.   -21.48303
  96600   38.64    -21.44849   0.0390  691.  684.   -21.48787
  96800   38.72    -21.44864   0.0300  691.  527.   -21.48976
  97000   38.80    -21.44878   0.0344  691.  603.   -21.49053
  97200   38.88    -21.44892   0.0130  690.  228.   -21.49286
  97400   38.96    -21.44907   0.0257  690.  451.   -21.49376
  97600   39.04    -21.44921   0.0295  689.  518.   -21.46173
  97800   39.12    -21.44929   0.0542  689.  951.   -21.45408
  98000   39.20    -21.44940   0.0371  689.  651.   -21.45895
  98200   39.28    -21.44950   0.0512  689.  898.   -21.46262
  98400   39.36    -21.44962   0.0506  690.  887.   -21.46737
  98600   39.44    -21.44974   0.0459  690.  805.   -21.47157
  98800   39.52    -21.44987   0.0375  690.  657.   -21.47584
  99000   39.60    -21.44999   0.0274  689.  481.   -21.47790
  99200   39.68    -21.45013   0.0519  689.  910.   -21.48387
  99400   39.76    -21.45026   0.0212  689.  371.   -21.48702
  99600   39.84    -21.45039   0.0381  689.  669.   -21.48808
  99800   39.92    -21.45054   0.0256  688.  449.   -21.49068
 100000   40.00    -21.45067   0.0333  688.  584.   -21.49254
block <Epot> / <T> :     -21.51317  620.     drift:  0.84D-02   Tbath : 300.
 100200   40.08    -21.45078   0.0462  688.  811.   -21.45109
 100400   40.16    -21.45087   0.0334  688.  585.   -21.45500
 100600   40.24    -21.45096   0.0518  688.  908.   -21.45903
 100800   40.32    -21.45109   0.0430  689.  754.   -21.46502
 101000   40.40    -21.45119   0.0320  688.  562.   -21.46676
 101200   40.48    -21.45129   0.0302  688.  530.   -21.47108
 101400   40.56    -21.45141   0.0273  688.  478.   -21.47513
 101600   40.64    -21.45153   0.0307  688.  538.   -21.47643
 101800   40.72    -21.45163   0.0285  688.  499.   -21.47874
 102000   40.80    -21.45175   0.0272  687.  478.   -21.48024
 102200   40.88    -21.45186   0.0316  687.  554.   -21.48204
 102400   40.96    -21.45199   0.0309  687.  543.   -21.48398
 102600   41.04    -21.45211   0.0388  687.  681.   -21.45504
 102800   41.12    -21.45219   0.0429  687.  753.   -21.44952
 103000   41.20    -21.45227   0.0335  687.  588.   -21.45276
 103200   41.28    -21.45235   0.0388  687.  680.   -21.45561
 103400   41.36    -21.45244   0.0405  687.  711.   -21.46118
 103600   41.44    -21.45254   0.0485  687.  851.   -21.46569
 103800   41.52    -21.45263   0.0292  687.  512.   -21.46784
 104000   41.60    -21.45274   0.0535  687.  938.   -21.47347
 104200   41.68    -21.45285   0.0295  687.  517.   -21.47589
 104400   41.76    -21.45295   0.0359  686.  631.   -21.47768
 104600   41.84    -21.45308   0.0452  686.  794.   -21.48040
 104800   41.92    -21.45319   0.0314  686.  551.   -21.48439
 105000   42.00    -21.45330   0.0367  685.  643.   -21.48578
block <Epot> / <T> :     -21.50572  634.     drift:  0.93D-02   Tbath : 300.
 105200   42.08    -21.45338   0.0405  685.  710.   -21.44590
 105400   42.16    -21.45345   0.0432  686.  757.   -21.44766
 105600   42.24    -21.45354   0.0476  686.  835.   -21.45570
 105800   42.32    -21.45363   0.0530  686.  930.   -21.45967
 106000   42.40    -21.45373   0.0416  686.  730.   -21.46301
 106200   42.48    -21.45382   0.0275  686.  482.   -21.46667
 106400   42.56    -21.45391   0.0285  686.  499.   -21.46982
 106600   42.64    -21.45401   0.0227  686.  399.   -21.47330
 106800   42.72    -21.45410   0.0330  685.  579.   -21.47549
 107000   42.80    -21.45419   0.0271  685.  476.   -21.47673
 107200   42.88    -21.45428   0.0214  684.  376.   -21.47842
 107400   42.96    -21.45438   0.0288  684.  505.   -21.47962
 107600   43.04    -21.45446   0.0362  684.  635.   -21.44912
 107800   43.12    -21.45449   0.0338  683.  593.   -21.43760
 108000   43.20    -21.45454   0.0374  684.  656.   -21.44105
 108200   43.28    -21.45459   0.0336  684.  590.   -21.44513
 108400   43.36    -21.45467   0.0371  684.  651.   -21.44968
 108600   43.44    -21.45475   0.0422  684.  740.   -21.45453
 108800   43.52    -21.45483   0.0343  684.  601.   -21.45858
 109000   43.60    -21.45491   0.0300  684.  527.   -21.46296
 109200   43.68    -21.45499   0.0265  684.  465.   -21.46476
 109400   43.76    -21.45506   0.0280  684.  491.   -21.46822
 109600   43.84    -21.45515   0.0399  683.  700.   -21.46998
 109800   43.92    -21.45525   0.0383  683.  673.   -21.47411
 110000   44.00    -21.45534   0.0430  683.  755.   -21.47612
block <Epot> / <T> :     -21.49817  634.     drift:  0.90D-02   Tbath : 300.
 110200   44.08    -21.45539   0.0440  683.  772.   -21.43244
 110400   44.16    -21.45542   0.0318  683.  558.   -21.43653
 110600   44.24    -21.45545   0.0422  683.  740.   -21.43916
 110800   44.32    -21.45550   0.0553  683.  970.   -21.44278
 111000   44.40    -21.45557   0.0509  683.  893.   -21.44787
 111200   44.48    -21.45563   0.0385  683.  676.   -21.45180
 111400   44.56    -21.45568   0.0387  683.  678.   -21.45435
 111600   44.64    -21.45575   0.0357  683.  626.   -21.45863
 111800   44.72    -21.45582   0.0262  683.  459.   -21.46138
 112000   44.80    -21.45590   0.0200  683.  351.   -21.46289
 112200   44.88    -21.45597   0.0316  682.  554.   -21.46556
 112400   44.96    -21.45604   0.0351  682.  615.   -21.46910
 112600   45.04    -21.45611   0.0340  682.  597.   -21.43847
 112800   45.12    -21.45611   0.0298  681.  523.   -21.42643
 113000   45.20    -21.45613   0.0327  681.  573.   -21.42803
 113200   45.28    -21.45614   0.0324  681.  568.   -21.43196
 113400   45.36    -21.45617   0.0487  681.  854.   -21.43531
 113600   45.44    -21.45624   0.0476  682.  836.   -21.44153
 113800   45.52    -21.45629   0.0449  682.  787.   -21.44605
 114000   45.60    -21.45633   0.0329  682.  577.   -21.45031
 114200   45.68    -21.45638   0.0324  682.  569.   -21.45159
 114400   45.76    -21.45645   0.0382  682.  670.   -21.45473
 114600   45.84    -21.45650   0.0313  681.  549.   -21.45732
 114800   45.92    -21.45655   0.0380  681.  666.   -21.46023
 115000   46.00    -21.45662   0.0248  681.  435.   -21.46239
block <Epot> / <T> :     -21.48466  630.     drift:  0.93D-02   Tbath : 300.
 115200   46.08    -21.45665   0.0357  681.  626.   -21.42118
 115400   46.16    -21.45667   0.0456  681.  800.   -21.42759
 115600   46.24    -21.45669   0.0303  681.  531.   -21.43069
 115800   46.32    -21.45673   0.0427  681.  749.   -21.43545
 116000   46.40    -21.45677   0.0457  681.  801.   -21.43923
 116200   46.48    -21.45681   0.0381  681.  668.   -21.44297
 116400   46.56    -21.45685   0.0300  681.  526.   -21.44771
 116600   46.64    -21.45689   0.0405  681.  710.   -21.44894
 116800   46.72    -21.45693   0.0280  681.  492.   -21.45171
 117000   46.80    -21.45698   0.0286  681.  502.   -21.45390
 117200   46.88    -21.45703   0.0379  680.  665.   -21.45609
 117400   46.96    -21.45709   0.0232  680.  408.   -21.45982
 117600   47.04    -21.45715   0.0370  680.  650.   -21.43079
 117800   47.12    -21.45715   0.0450  680.  790.   -21.42237
 118000   47.20    -21.45717   0.0371  680.  651.   -21.42799
 118200   47.28    -21.45718   0.0297  680.  521.   -21.42907
 118400   47.36    -21.45718   0.0359  680.  629.   -21.43267
 118600   47.44    -21.45720   0.0362  680.  635.   -21.43420
 118800   47.52    -21.45721   0.0219  679.  385.   -21.43862
 119000   47.60    -21.45724   0.0384  679.  674.   -21.44103
 119200   47.68    -21.45727   0.0340  679.  597.   -21.44249
 119400   47.76    -21.45729   0.0311  679.  545.   -21.44471
 119600   47.84    -21.45732   0.0290  678.  509.   -21.44598
 119800   47.92    -21.45735   0.0364  678.  638.   -21.44831
 120000   48.00    -21.45740   0.0325  678.  571.   -21.45240
block <Epot> / <T> :     -21.47522  609.     drift:  0.11D-01   Tbath : 300.
 120200   48.08    -21.45740   0.0414  678.  726.   -21.40796
 120400   48.16    -21.45740   0.0494  678.  867.   -21.41244
 120600   48.24    -21.45740   0.0392  678.  688.   -21.41779
 120800   48.32    -21.45742   0.0383  678.  671.   -21.42611
 121000   48.40    -21.45743   0.0331  678.  581.   -21.42987
 121200   48.48    -21.45745   0.0437  678.  767.   -21.43378
 121400   48.56    -21.45748   0.0327  678.  574.   -21.43660
 121600   48.64    -21.45749   0.0327  678.  574.   -21.43923
 121800   48.72    -21.45751   0.0291  678.  510.   -21.44028
 122000   48.80    -21.45754   0.0263  677.  461.   -21.44384
 122200   48.88    -21.45756   0.0295  677.  518.   -21.44605
 122400   48.96    -21.45759   0.0288  677.  506.   -21.44799
 122600   49.04    -21.45761   0.0289  677.  507.   -21.41938
 122800   49.12    -21.45759   0.0442  676.  775.   -21.40696
 123000   49.20    -21.45758   0.0552  677.  968.   -21.41006
 123200   49.28    -21.45759   0.0556  677.  975.   -21.41529
 123400   49.36    -21.45759   0.0371  677.  652.   -21.41827
 123600   49.44    -21.45758   0.0336  677.  590.   -21.42344
 123800   49.52    -21.45759   0.0452  677.  794.   -21.42562
 124000   49.60    -21.45761   0.0489  677.  858.   -21.43183
 124200   49.68    -21.45763   0.0343  677.  602.   -21.43276
 124400   49.76    -21.45764   0.0322  677.  565.   -21.43603
 124600   49.84    -21.45767   0.0318  677.  557.   -21.43878
 124800   49.92    -21.45769   0.0386  676.  677.   -21.44126
 average properties 
 Epot               :  -21.4577234103390     
 Epot (accurate SCC):  -21.4578952876718     
 Ekin               :  3.854691666018454E-002
 Etot               :  -21.4191764936788     
 T                  :   676.231390971583     
 thermostating problem
 normal exit of md()

------------------------------------------------------------------------
 * finished run on 2021/03/15 at 00:22:28.494     
------------------------------------------------------------------------
 total:
 * wall-time:     0 d,  0 h, 25 min, 19.957 sec
 *  cpu-time:     0 d,  0 h, 24 min, 59.780 sec
 * ratio c/w:     0.987 speedup
 SCF:
 * wall-time:     0 d,  0 h,  0 min,  0.706 sec
 *  cpu-time:     0 d,  0 h,  0 min,  0.028 sec
 * ratio c/w:     0.040 speedup
 MD:
 * wall-time:     0 d,  0 h, 25 min, 18.008 sec
 *  cpu-time:     0 d,  0 h, 24 min, 59.712 sec
 * ratio c/w:     0.988 speedup

