      -----------------------------------------------------------      
     |                   =====================                   |     
     |                           x T B                           |     
     |                   =====================                   |     
     |                         S. Grimme                         |     
     |          Mulliken Center for Theoretical Chemistry        |     
     |                    University of Bonn                     |     
     |                 Version 6.1.4 (SAW190525)                 |     
      -----------------------------------------------------------      

   This program is distributed in the hope that it will be useful,
   but WITHOUT ANY WARRANTY; without even the implied warranty of
   MERCHANTABILITY or FITNESS FOR A PARTICULAR PURPOSE.
   
   FOR NON-COMMERCIAL, ACADEMIA USE ONLY.
   
   Cite this work as:
   S. Grimme, C. Bannwarth, P. Shushkov, J. Comput. Theory Chem., 2017,
   13, 1989-2009. DOI: 10.1021/acs.jctc.7b00118
   C. Bannwarth, S. Ehlert and S. Grimme., J. Comput. Theory Chem., 2019,
   just accepted. DOI: 10.1021/acs.jctc.8b01176
   
   for sTDA-xTB:
   S. Grimme and C. Bannwarth, J. Chem. Phys., 2016, 145, 054103.
   DOI: 10.1063/1.4959605
   
   in the mass-spec context:
   V. Asgeirsson, C. Bauer and S. Grimme, Chem. Sci., 2017, 8, 4879.
   DOI: 10.1039/c7sc00601b
   
   for metadynamics refer to:
   S. Grimme, J. Chem. Theory Comput. Article ASAP, 2019,
   DOI: 10.1021/acs.jctc.9b00143
   
   with help from (in alphabetical order)
   C. Bannwarth, F. Bohle, G. Brandenburg, E. Caldeweyher, M. Checinski,
   S. Dohm, S. Ehlert, S. Ehrlich, F. März, H. Neugebauer, J. Pisarek,
   P. Pracht, P. Shushkov, and S. Spicher.
   
 * started run on 2021/03/14 at 23:57:09.076     

           -------------------------------------------------
          |                Calculation Setup                |
           -------------------------------------------------

          program call               : /opt/xtb/6.1/xtb-190527/bin/xtb 0.8_md.xyz --md --input metadyn.inp --gfn 2
          hostname                   : mnode007
          coordinate file            : 0.8_md.xyz
          omp threads                :                     1
          number of atoms            :                    12
          number of electrons        :                    36
          charge                     :                     0
          spin                       :                   0.0
          first test random number   :      0.40239206012493

spherical wallpotenial with radius    3.6488561 Å

########################################################################
# WARNING! Please study the warnings concerning your input carefully
#  - XTBPATH is not set, using XTBHOME instead
########################################################################

           ------------------------------------------------- 
          |                 G F N 2 - x T B                 |
          | Geometry, Frequencies, Noncovalent interactions |
          |            JCTC 2018 parametrisation            |
           ------------------------------------------------- 
             k(s)              :                1.8500
             k(p)              :                2.2300
             k(d)              :                2.2300
             k(f)              :                2.0000
             kEN (H0ij)        :               -2.0000
             D4 a1             :                0.5200
             D4 a2             :                5.0000
             D4 s6             :                1.0000
             D4 s8             :                2.7000
             D4 s9             :                5.0000
             alphaj            :                2.0000

  Z AO/shell   Hii/eV     exponent
  1     Wed Apr 25 08:07:45 CEST 2018   EN: 2.200 GM2: 0.406  GM3: 0.0800  RAES: 1.40
     1s    -10.707211    1.230000
  6     Wed Apr 25 08:07:45 CEST 2018   EN: 2.550 GM2: 0.538  GM3: 0.1500  RAES: 3.00
     2s    -13.970922    2.096432
     2p    -10.063292    1.800000
  8     Wed Apr 25 08:07:45 CEST 2018   EN: 3.440 GM2: 0.452  GM3:-0.0517  RAES: 1.80
     2s    -20.229985    2.439742
     2p    -15.503117    2.137023


            Z     q(EN)     CN     RAES       Cart. coordinates
     1  C   4.0    0.08    2.99    3.02     1.70115     3.61696     0.19176
     2  O   6.0   -0.34    1.00    1.80     2.76313     4.75510     1.91162
     3  C   4.0   -0.10    3.98    3.58    -0.18770     1.53135     0.59324
     4  H   1.0    0.14    0.99    1.43     1.97669     4.44918    -1.70038
     5  C   4.0   -0.05    3.97    3.58     0.30679    -0.98032    -0.69709
     6  H   1.0    0.11    0.99    1.43    -2.08854     1.91092    -0.12730
     7  H   1.0    0.16    0.99    1.43    -0.44973     0.90749     2.54819
     8  O   6.0   -0.18    1.91    1.82     2.23118    -2.52459     0.39285
     9  H   1.0    0.13    0.99    1.43     1.35130    -0.57309    -2.43866
    10  H   1.0    0.12    0.99    1.43    -1.37234    -2.17656    -0.88601
    11  O   6.0   -0.33    1.92    1.82     1.34757    -3.59150     2.76784
    12  H   1.0    0.26    0.99    1.43     0.03035    -4.78196     2.27725

           ------------------------------------------------- 
          |        Self-Consistent Charge Iterations        |
           ------------------------------------------------- 

          ...................................................
          :                      SETUP                      :
          :.................................................:
          :  # basis functions                  30          :
          :  # atomic orbitals                  30          :
          :  # shells                           18          :
          :  # electrons                        36          :
          :  max. iterations                   250          :
          :  Hamiltonian                  GFN2-xTB          :
          :  restarted?                      false          :
          :  GBSA solvation                  false          :
          :  PC potential                    false          :
          :  electronic temp.         6000.0000000     K    :
          :  accuracy                    1.0000000          :
          :  -> integral cutoff          0.2500000E+02      :
          :  -> integral neglect         0.1000000E-07      :
          :  -> SCF convergence          0.1000000E-05 Eh   :
          :  -> wf. convergence          0.1000000E-03 e    :
          :  Broyden damping             0.4000000          :
          ...................................................

 iter      E             dE          RMSdq      gap      omega  full diag
   1    -21.6702265 -0.216702E+02  0.496E+00    4.29       0.0  T
   2    -21.7023194 -0.320929E-01  0.253E+00    3.37       1.0  T
   3    -21.7027552 -0.435805E-03  0.173E+00    3.94       1.0  T
   4    -21.7113735 -0.861828E-02  0.178E-01    3.58       1.0  T
   5    -21.7115502 -0.176679E-03  0.867E-02    3.62       1.0  T
   6    -21.7115572 -0.707884E-05  0.300E-02    3.62       1.0  T
   7    -21.7115585 -0.122356E-05  0.963E-03    3.62       3.0  T
   8    -21.7115588 -0.327393E-06  0.436E-03    3.62       6.6  T
   9    -21.7115588 -0.383045E-07  0.168E-03    3.62      17.2  T
  10    -21.7115588 -0.146807E-07  0.903E-04    3.62      32.0  T
  11    -21.7115588 -0.512560E-08  0.380E-04    3.62      75.9  T

   *** convergence criteria satisfied after 11 iterations ***

         #    Occupation            Energy/Eh            Energy/eV
      -------------------------------------------------------------
         1        2.0000           -0.7361143             -20.0307
       ...           ...                  ...                  ...
        12        1.9999           -0.5382571             -14.6467
        13        1.9997           -0.5152401             -14.0204
        14        1.9991           -0.4930477             -13.4165
        15        1.9988           -0.4872801             -13.2596
        16        1.9975           -0.4722624             -12.8509
        17        1.9894           -0.4449769             -12.1084
        18        1.9486           -0.4146387             -11.2829 (HOMO)
        19        0.0665           -0.2815404              -7.6611 (LUMO)
        20        0.0004           -0.1850042              -5.0342
        21                         -0.0024067              -0.0655
        22                          0.0375441               1.0216
        23                          0.0666165               1.8127
       ...                                ...                  ...
        30                          0.5137196              13.9790
      -------------------------------------------------------------
                  HL-Gap            0.1330983 Eh            3.6218 eV
             Fermi-level           -0.3455576 Eh           -9.4031 eV

 SCC (total)                   0 d,  0 h,  0 min,  0.889 sec
 SCC setup                      ...        0 min,  0.001 sec (  0.068%)
 Dispersion                     ...        0 min,  0.000 sec (  0.021%)
 integral evaluation            ...        0 min,  0.005 sec (  0.557%)
 zeroth order Hamiltonian       ...        0 min,  0.522 sec ( 58.721%)
 iterations                     ...        0 min,  0.019 sec (  2.143%)
 molecular gradient             ...        0 min,  0.012 sec (  1.376%)
 printout                       ...        0 min,  0.330 sec ( 37.108%)

         :::::::::::::::::::::::::::::::::::::::::::::::::::::
         ::                     SUMMARY                     ::
         :::::::::::::::::::::::::::::::::::::::::::::::::::::
         :: total energy              -21.548143286976 Eh   ::
         :: gradient norm               0.093719956061 Eh/α ::
         :: HOMO-LUMO gap               3.621789070107 eV   ::
         ::.................................................::
         :: SCC energy                -21.711558840014 Eh   ::
         :: -> isotropic ES             0.050736561677 Eh   ::
         :: -> anisotropic ES          -0.002909442484 Eh   ::
         :: -> anisotropic XC          -0.002012016729 Eh   ::
         :: -> dispersion              -0.005692119884 Eh   ::
         :: repulsion energy            0.163409202746 Eh   ::
         :: add. restraining            0.000000418606 Eh   ::
         :::::::::::::::::::::::::::::::::::::::::::::::::::::

           -------------------------------------------------
          |                Property Printout                |
           -------------------------------------------------

    * Orbital Energies and Occupations

         #    Occupation            Energy/Eh            Energy/eV
      -------------------------------------------------------------
         1        2.0000           -0.7361143             -20.0307
       ...           ...                  ...                  ...
         6        2.0000           -0.6193096             -16.8523
         7        2.0000           -0.5976488             -16.2629
         8        2.0000           -0.5938216             -16.1587
         9        2.0000           -0.5836884             -15.8830
        10        2.0000           -0.5578737             -15.1805
        11        2.0000           -0.5498279             -14.9616
        12        1.9999           -0.5382571             -14.6467
        13        1.9997           -0.5152401             -14.0204
        14        1.9991           -0.4930477             -13.4165
        15        1.9988           -0.4872801             -13.2596
        16        1.9975           -0.4722624             -12.8509
        17        1.9894           -0.4449769             -12.1084
        18        1.9486           -0.4146387             -11.2829 (HOMO)
        19        0.0665           -0.2815404              -7.6611 (LUMO)
        20        0.0004           -0.1850042              -5.0342
        21                         -0.0024067              -0.0655
        22                          0.0375441               1.0216
        23                          0.0666165               1.8127
        24                          0.1208142               3.2875
        25                          0.1359414               3.6992
        26                          0.1485448               4.0421
        27                          0.1874005               5.0994
        28                          0.2193265               5.9682
        29                          0.2923158               7.9543
        30                          0.5137196              13.9790
      -------------------------------------------------------------
                  HL-Gap            0.1330983 Eh            3.6218 eV
             Fermi-level           -0.3455576 Eh           -9.4031 eV

   #   Z        covCN         q      C6AA      α(0)
   1   6 C      2.756     0.204    23.659     7.965
   2   8 O      0.856    -0.315    20.059     6.005
   3   6 C      3.801    -0.089    22.206     6.709
   4   1 H      0.923     0.041     2.440     2.443
   5   6 C      3.674     0.076    19.543     6.335
   6   1 H      0.924     0.074     2.046     2.237
   7   1 H      0.924     0.097     1.816     2.108
   8   8 O      1.753    -0.211    17.497     5.648
   9   1 H      0.924     0.081     1.970     2.195
  10   1 H      0.924     0.048     2.340     2.392
  11   8 O      1.709    -0.313    19.227     5.920
  12   1 H      0.804     0.309     0.695     1.309

 Mol. C6AA /au·bohr⁶  :       1227.557494
 Mol. C8AA /au·bohr⁸  :      26109.840012
 Mol. α(0) /au        :         51.266256


Wiberg/Mayer (AO) data.
largest (>0.10) Wiberg bond orders for each atom
          total WBO             WBO to atom ...
     1  C   3.848        O    2 1.877    C    3 1.008    H    4 0.932
     2  O   2.008        C    1 1.877
     3  C   3.971        C    1 1.008    C    5 0.980    H    7 0.959    H    6 0.942
     4  H   0.984        C    1 0.932
     5  C   3.938        O    8 0.987    C    3 0.980    H   10 0.966    H    9 0.948
     6  H   0.990        C    3 0.942
     7  H   0.989        C    3 0.959
     8  O   2.019        C    5 0.987    O   11 0.970
     9  H   0.992        C    5 0.948
    10  H   0.995        C    5 0.966
    11  O   1.921        O    8 0.970    H   12 0.895
    12  H   0.904        O   11 0.895

molecular dipole:
                 x           y           z       tot (Debye)
 q only:       -1.441      -0.533      -0.988
   full:       -1.769      -0.737      -1.261       5.831
molecular quadrupole (traceless):
                xx          xy          yy          xz          yz          zz
 q only:       -1.588      -0.172       0.196      -5.059      -4.035       1.393
  q+dip:       -1.532       1.272       1.003      -6.868      -5.304       0.529
   full:       -1.510       0.272       0.955      -6.901      -5.365       0.555


           -------------------------------------------------
          | TOTAL ENERGY              -21.548143286976 Eh   |
          | GRADIENT NORM               0.093719956061 Eh/α |
          | HOMO-LUMO GAP               3.621789070107 eV   |
           -------------------------------------------------
           ------------------------------------------------- 
          |                  Meta Dynamics                  |
           ------------------------------------------------- 
 trajectories on xtb.trj or xtb.trj.<n>
 
 MD time /ps        :   50.00
 dt /fs             :    0.40
 SCC accuracy       :    2.00
 temperature /K     :  300.00
 max steps          :125000
 block length (av.) :  5000
 dumpstep(trj) /fs  :   10.00    25
 dumpstep(coords)/fs: 1000.00  2500
 H atoms mass (amu) :     2
 # deg. of freedom  :    36
 SHAKE off
 Berendsen THERMOSTAT on
kpush  :    0.050
alpha  :    0.300
update : 100
         time (ps)    <Epot>      Ekin   <T>   T     Etot
      0    0.00      0.00000   0.0428    0.    0.   -21.45539
est. speed in wall clock h for 100 ps :  0.94
    200    0.08    -21.40098   0.0241  596.  423.   -21.46496
    400    0.16    -21.45485   0.0515  668.  904.   -21.46879
    600    0.24    -21.47638   0.0422  725.  741.   -21.47436
    800    0.32    -21.48959   0.0623  774. 1094.   -21.48009
   1000    0.40    -21.49776   0.0331  786.  580.   -21.48487
   1200    0.48    -21.50195   0.0253  762.  443.   -21.48747
   1400    0.56    -21.50489   0.0465  737.  815.   -21.49054
   1600    0.64    -21.50851   0.0442  736.  776.   -21.49398
   1800    0.72    -21.51195   0.0381  738.  668.   -21.49822
   2000    0.80    -21.51414   0.0373  723.  654.   -21.50134
   2200    0.88    -21.51634   0.0307  714.  539.   -21.50371
   2400    0.96    -21.51758   0.0332  693.  582.   -21.50601
   2600    1.04    -21.51789   0.0302  678.  530.   -21.46340
   2800    1.12    -21.51566   0.0222  662.  389.   -21.45966
   3000    1.20    -21.51398   0.0351  652.  615.   -21.46258
   3200    1.28    -21.51445   0.0573  673. 1005.   -21.46898
   3400    1.36    -21.51524   0.0479  691.  840.   -21.47486
   3600    1.44    -21.51532   0.0472  692.  827.   -21.47953
   3800    1.52    -21.51634   0.0495  704.  868.   -21.48541
   4000    1.60    -21.51711   0.0344  708.  603.   -21.48908
   4200    1.68    -21.51791   0.0364  711.  638.   -21.49243
   4400    1.76    -21.51838   0.0459  705.  805.   -21.49563
   4600    1.84    -21.51893   0.0233  700.  408.   -21.49725
   4800    1.92    -21.51954   0.0317  696.  557.   -21.50072
block <Epot> / <T> :     -21.52431  689.     drift:  0.99D+02   Tbath : 300.
   5000    2.00    -21.52001   0.0221  689.  387.   -21.50351
   5200    2.08    -21.51924   0.0332  683.  582.   -21.46057
   5400    2.16    -21.51846   0.0367  681.  644.   -21.46310
   5600    2.24    -21.51790   0.0432  681.  758.   -21.46738
   5800    2.32    -21.51757   0.0434  681.  761.   -21.47048
   6000    2.40    -21.51729   0.0342  680.  601.   -21.47369
   6200    2.48    -21.51708   0.0317  678.  555.   -21.47682
   6400    2.56    -21.51699   0.0344  677.  604.   -21.47914
   6600    2.64    -21.51692   0.0303  674.  532.   -21.48279
   6800    2.72    -21.51676   0.0248  669.  435.   -21.48373
   7000    2.80    -21.51664   0.0252  664.  441.   -21.48549
   7200    2.88    -21.51667   0.0346  660.  608.   -21.48845
   7400    2.96    -21.51668   0.0335  656.  588.   -21.48924
   7600    3.04    -21.51647   0.0373  653.  654.   -21.45053
   7800    3.12    -21.51562   0.0316  651.  554.   -21.45139
   8000    3.20    -21.51483   0.0406  649.  713.   -21.45331
   8200    3.28    -21.51417   0.0349  647.  612.   -21.45551
   8400    3.36    -21.51376   0.0481  648.  844.   -21.45967
   8600    3.44    -21.51363   0.0380  652.  667.   -21.46473
   8800    3.52    -21.51362   0.0461  656.  809.   -21.46910
   9000    3.60    -21.51337   0.0288  654.  505.   -21.47122
   9200    3.68    -21.51309   0.0347  650.  608.   -21.47358
   9400    3.76    -21.51309   0.0406  651.  712.   -21.47692
   9600    3.84    -21.51318   0.0327  652.  573.   -21.48068
   9800    3.92    -21.51319   0.0252  650.  443.   -21.48246
  10000    4.00    -21.51303   0.0210  644.  368.   -21.48366
block <Epot> / <T> :     -21.50604  600.     drift:  0.99D+02   Tbath : 300.
  10200    4.08    -21.51237   0.0320  642.  561.   -21.44014
  10400    4.16    -21.51181   0.0495  644.  869.   -21.44320
  10600    4.24    -21.51115   0.0341  643.  598.   -21.44511
  10800    4.32    -21.51065   0.0388  643.  681.   -21.44834
  11000    4.40    -21.51028   0.0470  644.  824.   -21.45245
  11200    4.48    -21.50992   0.0275  643.  482.   -21.45512
  11400    4.56    -21.50953   0.0368  642.  645.   -21.45847
  11600    4.64    -21.50924   0.0334  641.  587.   -21.46078
  11800    4.72    -21.50887   0.0187  638.  327.   -21.46218
  12000    4.80    -21.50855   0.0401  635.  703.   -21.46418
  12200    4.88    -21.50835   0.0258  634.  453.   -21.46586
  12400    4.96    -21.50812   0.0305  631.  535.   -21.46701
  12600    5.04    -21.50774   0.0367  629.  643.   -21.42624
  12800    5.12    -21.50713   0.0381  631.  669.   -21.42689
  13000    5.20    -21.50644   0.0434  630.  761.   -21.43025
  13200    5.28    -21.50583   0.0434  630.  761.   -21.43288
  13400    5.36    -21.50521   0.0217  628.  380.   -21.43573
  13600    5.44    -21.50469   0.0373  627.  655.   -21.43714
  13800    5.52    -21.50415   0.0383  626.  671.   -21.43948
  14000    5.60    -21.50378   0.0447  626.  784.   -21.44245
  14200    5.68    -21.50348   0.0350  626.  614.   -21.44565
  14400    5.76    -21.50309   0.0378  625.  663.   -21.44859
  14600    5.84    -21.50285   0.0398  625.  699.   -21.45074
  14800    5.92    -21.50255   0.0265  623.  464.   -21.45263
  15000    6.00    -21.50234   0.0261  622.  457.   -21.45662
block <Epot> / <T> :     -21.48095  578.     drift:  0.99D+02   Tbath : 300.
  15200    6.08    -21.50170   0.0291  621.  511.   -21.41148
  15400    6.16    -21.50104   0.0394  622.  692.   -21.41569
  15600    6.24    -21.50058   0.0487  624.  855.   -21.42081
  15800    6.32    -21.50010   0.0291  626.  510.   -21.42366
  16000    6.40    -21.49956   0.0343  625.  602.   -21.42693
  16200    6.48    -21.49909   0.0326  624.  572.   -21.42928
  16400    6.56    -21.49864   0.0439  624.  770.   -21.43122
  16600    6.64    -21.49824   0.0213  623.  374.   -21.43376
  16800    6.72    -21.49786   0.0282  622.  495.   -21.43601
  17000    6.80    -21.49749   0.0337  621.  592.   -21.43847
  17200    6.88    -21.49715   0.0280  619.  492.   -21.44077
  17400    6.96    -21.49682   0.0226  617.  396.   -21.44202
  17600    7.04    -21.49640   0.0225  616.  395.   -21.40216
  17800    7.12    -21.49569   0.0457  616.  802.   -21.40054
  18000    7.20    -21.49504   0.0335  616.  587.   -21.40341
  18200    7.28    -21.49441   0.0242  615.  424.   -21.40601
  18400    7.36    -21.49384   0.0352  615.  618.   -21.40834
  18600    7.44    -21.49326   0.0272  614.  478.   -21.41004
  18800    7.52    -21.49274   0.0413  614.  725.   -21.41304
  19000    7.60    -21.49228   0.0304  614.  534.   -21.41686
  19200    7.68    -21.49186   0.0414  614.  727.   -21.41880
  19400    7.76    -21.49145   0.0381  613.  669.   -21.42086
  19600    7.84    -21.49109   0.0394  613.  692.   -21.42395
  19800    7.92    -21.49077   0.0301  612.  528.   -21.42581
  20000    8.00    -21.49047   0.0372  612.  652.   -21.43089
block <Epot> / <T> :     -21.45485  582.     drift:  0.23D-01   Tbath : 300.
  20200    8.08    -21.48989   0.0415  612.  729.   -21.38764
  20400    8.16    -21.48928   0.0459  613.  805.   -21.38967
  20600    8.24    -21.48871   0.0341  613.  598.   -21.39361
  20800    8.32    -21.48814   0.0373  613.  655.   -21.39690
  21000    8.40    -21.48764   0.0353  614.  618.   -21.39860
  21200    8.48    -21.48715   0.0383  614.  673.   -21.40220
  21400    8.56    -21.48672   0.0245  614.  430.   -21.40537
  21600    8.64    -21.48629   0.0342  614.  600.   -21.40833
  21800    8.72    -21.48588   0.0319  613.  559.   -21.40980
  22000    8.80    -21.48547   0.0254  612.  445.   -21.41296
  22200    8.88    -21.48506   0.0237  611.  416.   -21.41346
  22400    8.96    -21.48471   0.0379  610.  666.   -21.41571
  22600    9.04    -21.48422   0.0245  609.  429.   -21.37566
  22800    9.12    -21.48350   0.0362  608.  635.   -21.37196
  23000    9.20    -21.48284   0.0499  608.  876.   -21.37470
  23200    9.28    -21.48225   0.0320  608.  561.   -21.37811
  23400    9.36    -21.48174   0.0497  609.  871.   -21.38122
  23600    9.44    -21.48134   0.0474  612.  832.   -21.38799
  23800    9.52    -21.48093   0.0366  613.  642.   -21.39261
  24000    9.60    -21.48045   0.0229  612.  402.   -21.39434
  24200    9.68    -21.47996   0.0224  611.  393.   -21.39647
  24400    9.76    -21.47953   0.0325  610.  569.   -21.39777
  24600    9.84    -21.47923   0.0518  612.  908.   -21.40198
  24800    9.92    -21.47894   0.0276  612.  484.   -21.40562
  25000   10.00    -21.47856   0.0271  611.  476.   -21.40667
block <Epot> / <T> :     -21.43088  606.     drift:  0.25D-01   Tbath : 300.
  25200   10.08    -21.47802   0.0623  611. 1092.   -21.36505
  25400   10.16    -21.47767   0.0437  615.  767.   -21.37234
  25600   10.24    -21.47718   0.0280  616.  491.   -21.37437
  25800   10.32    -21.47663   0.0286  616.  502.   -21.37699
  26000   10.40    -21.47608   0.0244  615.  427.   -21.37910
  26200   10.48    -21.47564   0.0420  615.  737.   -21.38251
  26400   10.56    -21.47530   0.0509  616.  893.   -21.38678
  26600   10.64    -21.47490   0.0246  616.  431.   -21.39008
  26800   10.72    -21.47445   0.0178  615.  312.   -21.39203
  27000   10.80    -21.47409   0.0399  615.  700.   -21.39449
  27200   10.88    -21.47377   0.0231  615.  406.   -21.39704
  27400   10.96    -21.47341   0.0317  614.  556.   -21.39739
  27600   11.04    -21.47303   0.0372  613.  653.   -21.35878
  27800   11.12    -21.47248   0.0453  614.  795.   -21.35822
  28000   11.20    -21.47196   0.0207  614.  363.   -21.36211
  28200   11.28    -21.47141   0.0414  614.  727.   -21.36414
  28400   11.36    -21.47090   0.0402  614.  705.   -21.36661
  28600   11.44    -21.47044   0.0411  614.  721.   -21.37033
  28800   11.52    -21.46998   0.0252  614.  442.   -21.37308
  29000   11.60    -21.46954   0.0283  613.  496.   -21.37556
  29200   11.68    -21.46916   0.0366  614.  642.   -21.37779
  29400   11.76    -21.46874   0.0212  613.  373.   -21.38017
  29600   11.84    -21.46837   0.0276  613.  484.   -21.38302
  29800   11.92    -21.46799   0.0254  612.  446.   -21.38525
  30000   12.00    -21.46764   0.0335  611.  588.   -21.38672
block <Epot> / <T> :     -21.41302  613.     drift:  0.23D-01   Tbath : 300.
  30200   12.08    -21.46705   0.0350  610.  613.   -21.33934
  30400   12.16    -21.46644   0.0434  610.  761.   -21.34202
  30600   12.24    -21.46590   0.0495  611.  869.   -21.34550
  30800   12.32    -21.46545   0.0460  612.  807.   -21.35073
  31000   12.40    -21.46497   0.0340  613.  597.   -21.35544
  31200   12.48    -21.46445   0.0271  612.  475.   -21.35660
  31400   12.56    -21.46393   0.0298  611.  522.   -21.35744
  31600   12.64    -21.46346   0.0443  610.  778.   -21.36072
  31800   12.72    -21.46309   0.0464  611.  814.   -21.36464
  32000   12.80    -21.46271   0.0352  611.  618.   -21.36688
  32200   12.88    -21.46235   0.0360  611.  631.   -21.37038
  32400   12.96    -21.46198   0.0270  611.  473.   -21.37235
  32600   13.04    -21.46154   0.0364  610.  639.   -21.33277
  32800   13.12    -21.46097   0.0437  611.  766.   -21.33128
  33000   13.20    -21.46045   0.0304  611.  534.   -21.33492
  33200   13.28    -21.45991   0.0240  611.  420.   -21.33698
  33400   13.36    -21.45935   0.0243  611.  427.   -21.33995
  33600   13.44    -21.45882   0.0266  610.  467.   -21.34032
  33800   13.52    -21.45832   0.0425  610.  746.   -21.34353
  34000   13.60    -21.45789   0.0463  610.  813.   -21.34768
  34200   13.68    -21.45743   0.0323  610.  566.   -21.34991
  34400   13.76    -21.45698   0.0351  609.  615.   -21.35194
  34600   13.84    -21.45654   0.0332  609.  582.   -21.35324
  34800   13.92    -21.45611   0.0246  608.  432.   -21.35410
  35000   14.00    -21.45567   0.0255  607.  448.   -21.35583
block <Epot> / <T> :     -21.38380  580.     drift:  0.23D-01   Tbath : 300.
  35200   14.08    -21.45506   0.0222  606.  389.   -21.31026
  35400   14.16    -21.45449   0.0417  607.  731.   -21.31448
  35600   14.24    -21.45399   0.0515  608.  904.   -21.31914
  35800   14.32    -21.45354   0.0485  610.  851.   -21.32394
  36000   14.40    -21.45305   0.0277  610.  486.   -21.32889
  36200   14.48    -21.45256   0.0368  610.  646.   -21.33119
  36400   14.56    -21.45210   0.0315  610.  553.   -21.33437
  36600   14.64    -21.45163   0.0331  610.  581.   -21.33634
  36800   14.72    -21.45120   0.0425  610.  745.   -21.33942
  37000   14.80    -21.45080   0.0179  610.  314.   -21.34190
  37200   14.88    -21.45039   0.0314  609.  551.   -21.34417
  37400   14.96    -21.44999   0.0391  609.  685.   -21.34588
  37600   15.04    -21.44956   0.0351  609.  616.   -21.30893
  37800   15.12    -21.44905   0.0532  610.  933.   -21.30895
  38000   15.20    -21.44857   0.0467  611.  820.   -21.31278
  38200   15.28    -21.44811   0.0557  612.  977.   -21.31747
  38400   15.36    -21.44772   0.0485  614.  851.   -21.32391
  38600   15.44    -21.44732   0.0395  614.  694.   -21.32723
  38800   15.52    -21.44690   0.0409  615.  718.   -21.33123
  39000   15.60    -21.44650   0.0347  615.  609.   -21.33482
  39200   15.68    -21.44610   0.0394  614.  692.   -21.33676
  39400   15.76    -21.44575   0.0417  615.  731.   -21.34081
  39600   15.84    -21.44542   0.0484  615.  848.   -21.34274
  39800   15.92    -21.44511   0.0325  616.  570.   -21.34642
  40000   16.00    -21.44478   0.0337  615.  591.   -21.34823
block <Epot> / <T> :     -21.36852  673.     drift:  0.22D-01   Tbath : 300.
  40200   16.08    -21.44429   0.0369  615.  647.   -21.30310
  40400   16.16    -21.44385   0.0471  616.  827.   -21.30818
  40600   16.24    -21.44341   0.0433  617.  760.   -21.31362
  40800   16.32    -21.44300   0.0459  617.  805.   -21.31742
  41000   16.40    -21.44259   0.0434  618.  761.   -21.32117
  41200   16.48    -21.44221   0.0328  618.  576.   -21.32682
  41400   16.56    -21.44184   0.0452  619.  792.   -21.32711
  41600   16.64    -21.44147   0.0315  619.  552.   -21.33252
  41800   16.72    -21.44112   0.0413  619.  724.   -21.33459
  42000   16.80    -21.44077   0.0324  618.  569.   -21.33788
  42200   16.88    -21.44044   0.0279  618.  489.   -21.33802
  42400   16.96    -21.44011   0.0316  618.  555.   -21.34158
  42600   17.04    -21.43974   0.0387  617.  680.   -21.30416
  42800   17.12    -21.43922   0.0185  617.  324.   -21.29815
  43000   17.20    -21.43872   0.0358  617.  629.   -21.30047
  43200   17.28    -21.43822   0.0095  616.  167.   -21.30241
  43400   17.36    -21.43773   0.0334  616.  586.   -21.30360
  43600   17.44    -21.43726   0.0236  615.  413.   -21.30673
  43800   17.52    -21.43679   0.0260  615.  456.   -21.30847
  44000   17.60    -21.43633   0.0286  614.  502.   -21.30944
  44200   17.68    -21.43588   0.0224  613.  394.   -21.30989
  44400   17.76    -21.43546   0.0320  613.  561.   -21.31234
  44600   17.84    -21.43506   0.0380  613.  667.   -21.31502
  44800   17.92    -21.43463   0.0209  612.  366.   -21.31617
  45000   18.00    -21.43425   0.0175  611.  307.   -21.31776
block <Epot> / <T> :     -21.34993  582.     drift:  0.20D-01   Tbath : 300.
  45200   18.08    -21.43373   0.0368  611.  646.   -21.27522
  45400   18.16    -21.43322   0.0436  612.  765.   -21.27810
  45600   18.24    -21.43277   0.0441  613.  773.   -21.28389
  45800   18.32    -21.43231   0.0478  613.  839.   -21.28850
  46000   18.40    -21.43189   0.0540  614.  948.   -21.29289
  46200   18.48    -21.43148   0.0471  615.  827.   -21.29549
  46400   18.56    -21.43107   0.0305  615.  535.   -21.29907
  46600   18.64    -21.43067   0.0369  615.  647.   -21.30216
  46800   18.72    -21.43030   0.0293  615.  513.   -21.30622
  47000   18.80    -21.42991   0.0280  615.  491.   -21.30856
  47200   18.88    -21.42952   0.0433  614.  759.   -21.31102
  47400   18.96    -21.42918   0.0212  615.  372.   -21.31285
  47600   19.04    -21.42877   0.0350  614.  614.   -21.27693
  47800   19.12    -21.42830   0.0354  614.  621.   -21.27440
  48000   19.20    -21.42784   0.0513  615.  900.   -21.27805
  48200   19.28    -21.42739   0.0368  615.  646.   -21.28288
  48400   19.36    -21.42693   0.0409  615.  718.   -21.28533
  48600   19.44    -21.42651   0.0359  615.  629.   -21.28803
  48800   19.52    -21.42608   0.0419  615.  736.   -21.29123
  49000   19.60    -21.42568   0.0304  615.  534.   -21.29517
  49200   19.68    -21.42527   0.0236  615.  414.   -21.29682
  49400   19.76    -21.42487   0.0310  614.  544.   -21.29807
  49600   19.84    -21.42448   0.0351  614.  616.   -21.30005
  49800   19.92    -21.42411   0.0213  614.  374.   -21.30161
  50000   20.00    -21.42373   0.0208  613.  366.   -21.30313
block <Epot> / <T> :     -21.32904  627.     drift:  0.18D-01   Tbath : 300.
  50200   20.08    -21.42324   0.0346  613.  607.   -21.25947
  50400   20.16    -21.42276   0.0436  613.  765.   -21.26085
  50600   20.24    -21.42229   0.0435  613.  763.   -21.26544
  50800   20.32    -21.42185   0.0437  614.  767.   -21.26915
  51000   20.40    -21.42140   0.0281  614.  492.   -21.27341
  51200   20.48    -21.42097   0.0461  614.  809.   -21.27598
  51400   20.56    -21.42055   0.0362  614.  635.   -21.28191
  51600   20.64    -21.42016   0.0322  614.  565.   -21.28272
  51800   20.72    -21.41977   0.0340  614.  597.   -21.28635
  52000   20.80    -21.41938   0.0313  614.  550.   -21.28907
  52200   20.88    -21.41899   0.0209  614.  367.   -21.29094
  52400   20.96    -21.41863   0.0305  613.  535.   -21.29275
  52600   21.04    -21.41824   0.0328  613.  576.   -21.25525
  52800   21.12    -21.41771   0.0171  613.  300.   -21.25001
  53000   21.20    -21.41722   0.0346  613.  607.   -21.25279
  53200   21.28    -21.41675   0.0395  613.  693.   -21.25682
  53400   21.36    -21.41632   0.0379  613.  665.   -21.26091
  53600   21.44    -21.41589   0.0352  614.  617.   -21.26464
  53800   21.52    -21.41545   0.0163  613.  286.   -21.26638
  54000   21.60    -21.41500   0.0326  613.  573.   -21.26861
  54200   21.68    -21.41458   0.0396  613.  695.   -21.27019
  54400   21.76    -21.41415   0.0204  612.  358.   -21.27266
  54600   21.84    -21.41372   0.0298  611.  523.   -21.27380
  54800   21.92    -21.41333   0.0302  611.  530.   -21.27656
  55000   22.00    -21.41291   0.0213  610.  374.   -21.27708
block <Epot> / <T> :     -21.30466  584.     drift:  0.21D-01   Tbath : 300.
  55200   22.08    -21.41240   0.0381  610.  668.   -21.23014
  55400   22.16    -21.41191   0.0474  610.  832.   -21.23427
  55600   22.24    -21.41141   0.0290  611.  508.   -21.23795
  55800   22.32    -21.41093   0.0484  611.  850.   -21.24089
  56000   22.40    -21.41046   0.0334  611.  587.   -21.24545
  56200   22.48    -21.40999   0.0383  611.  672.   -21.24814
  56400   22.56    -21.40953   0.0269  610.  472.   -21.25072
  56600   22.64    -21.40910   0.0382  610.  671.   -21.25262
  56800   22.72    -21.40868   0.0307  610.  539.   -21.25692
  57000   22.80    -21.40827   0.0301  611.  529.   -21.25923
  57200   22.88    -21.40789   0.0345  611.  605.   -21.26288
  57400   22.96    -21.40752   0.0434  611.  761.   -21.26565
  57600   23.04    -21.40712   0.0411  611.  721.   -21.22998
  57800   23.12    -21.40663   0.0618  611. 1084.   -21.22521
  58000   23.20    -21.40622   0.1018  613. 1785.   -21.23189
  58200   23.28    -21.40596   0.0914  616. 1603.   -21.24461
  58400   23.36    -21.40580   0.1040  621. 1825.   -21.26108
  58600   23.44    -21.40569   0.0913  625. 1602.   -21.28147
  58800   23.52    -21.40554   0.1038  627. 1821.   -21.28824
  59000   23.60    -21.40547   0.0491  631.  861.   -21.29990
  59200   23.68    -21.40536   0.0547  633.  960.   -21.30996
  59400   23.76    -21.40533   0.0651  635. 1142.   -21.31985
  59600   23.84    -21.40527   0.0839  637. 1472.   -21.32618
  59800   23.92    -21.40525   0.0649  639. 1139.   -21.33447
  60000   24.00    -21.40523   0.0542  640.  951.   -21.34133
block <Epot> / <T> :     -21.32095  971.     drift:  0.11D-01   Tbath : 300.
  60200   24.08    -21.40513   0.0564  642.  990.   -21.30341
  60400   24.16    -21.40502   0.0889  643. 1559.   -21.31116
  60600   24.24    -21.40494   0.0747  645. 1311.   -21.31735
  60800   24.32    -21.40489   0.0581  647. 1020.   -21.33052
  61000   24.40    -21.40484   0.0758  648. 1329.   -21.33674
  61200   24.48    -21.40482   0.0372  649.  653.   -21.34273
  61400   24.56    -21.40479   0.0687  650. 1205.   -21.35007
  61600   24.64    -21.40479   0.0352  651.  618.   -21.35326
  61800   24.72    -21.40486   0.0994  652. 1744.   -21.35976
  62000   24.80    -21.40504   0.0894  656. 1568.   -21.37556
  62200   24.88    -21.40521   0.0713  658. 1251.   -21.38024
  62400   24.96    -21.40541   0.0803  660. 1410.   -21.39226
  62600   25.04    -21.40558   0.0613  662. 1076.   -21.36176
  62800   25.12    -21.40566   0.0639  663. 1120.   -21.36460
  63000   25.20    -21.40578   0.0998  665. 1751.   -21.37848
  63200   25.28    -21.40594   0.0621  667. 1090.   -21.38465
  63400   25.36    -21.40608   0.0644  669. 1130.   -21.39185
  63600   25.44    -21.40622   0.0495  669.  868.   -21.39783
  63800   25.52    -21.40637   0.0510  670.  894.   -21.40425
  64000   25.60    -21.40654   0.0596  671. 1046.   -21.40998
  64200   25.68    -21.40675   0.0480  672.  842.   -21.41795
  64400   25.76    -21.40696   0.0499  673.  875.   -21.42246
  64600   25.84    -21.40716   0.0425  673.  746.   -21.43127
  64800   25.92    -21.40736   0.0381  674.  668.   -21.43469
  65000   26.00    -21.40758   0.0418  674.  733.   -21.43739
block <Epot> / <T> :     -21.43604 1079.     drift: -0.34D-01   Tbath : 300.
  65200   26.08    -21.40772   0.0426  674.  747.   -21.39650
  65400   26.16    -21.40783   0.0433  675.  759.   -21.39914
  65600   26.24    -21.40793   0.0408  675.  715.   -21.40489
  65800   26.32    -21.40806   0.0478  675.  838.   -21.40963
  66000   26.40    -21.40820   0.0518  675.  908.   -21.41337
  66200   26.48    -21.40835   0.0585  675. 1026.   -21.41669
  66400   26.56    -21.40851   0.0412  676.  723.   -21.42059
  66600   26.64    -21.40868   0.0424  676.  744.   -21.42640
  66800   26.72    -21.40884   0.0347  676.  609.   -21.42780
  67000   26.80    -21.40899   0.0213  675.  374.   -21.43026
  67200   26.88    -21.40915   0.0248  675.  435.   -21.43333
  67400   26.96    -21.40933   0.0342  675.  600.   -21.43651
  67600   27.04    -21.40949   0.0302  674.  529.   -21.39997
  67800   27.12    -21.40955   0.0320  674.  561.   -21.39460
  68000   27.20    -21.40962   0.0430  674.  754.   -21.39962
  68200   27.28    -21.40970   0.0467  674.  820.   -21.40329
  68400   27.36    -21.40980   0.0382  674.  671.   -21.40680
  68600   27.44    -21.40992   0.0398  674.  699.   -21.41112
  68800   27.52    -21.41005   0.0410  674.  720.   -21.41463
  69000   27.60    -21.41017   0.0365  674.  641.   -21.41825
  69200   27.68    -21.41029   0.0258  674.  453.   -21.41899
  69400   27.76    -21.41040   0.0339  673.  594.   -21.42132
  69600   27.84    -21.41053   0.0299  673.  525.   -21.42471
  69800   27.92    -21.41067   0.0335  673.  588.   -21.42813
  70000   28.00    -21.41082   0.0360  673.  632.   -21.42969
block <Epot> / <T> :     -21.45290  655.     drift: -0.56D-01   Tbath : 300.
  70200   28.08    -21.41088   0.0301  672.  528.   -21.38699
  70400   28.16    -21.41093   0.0381  672.  669.   -21.38958
  70600   28.24    -21.41098   0.0230  672.  404.   -21.39230
  70800   28.32    -21.41102   0.0338  672.  593.   -21.39547
  71000   28.40    -21.41106   0.0265  672.  464.   -21.39719
  71200   28.48    -21.41112   0.0340  671.  596.   -21.40007
  71400   28.56    -21.41117   0.0335  671.  588.   -21.40065
  71600   28.64    -21.41123   0.0328  670.  575.   -21.40345
  71800   28.72    -21.41129   0.0290  670.  509.   -21.40585
  72000   28.80    -21.41134   0.0342  669.  600.   -21.40775
  72200   28.88    -21.41140   0.0236  669.  414.   -21.40930
  72400   28.96    -21.41148   0.0189  668.  331.   -21.40973
  72600   29.04    -21.41152   0.0183  667.  320.   -21.37379
  72800   29.12    -21.41148   0.0314  667.  551.   -21.36527
  73000   29.20    -21.41150   0.0671  668. 1176.   -21.37164
  73200   29.28    -21.41154   0.0463  668.  812.   -21.37724
  73400   29.36    -21.41159   0.0508  669.  891.   -21.38262
  73600   29.44    -21.41166   0.0558  670.  978.   -21.38753
  73800   29.52    -21.41174   0.0358  670.  628.   -21.39056
  74000   29.60    -21.41178   0.0405  670.  711.   -21.39546
  74200   29.68    -21.41186   0.0315  670.  552.   -21.39934
  74400   29.76    -21.41191   0.0411  670.  721.   -21.40147
  74600   29.84    -21.41198   0.0379  669.  665.   -21.40600
  74800   29.92    -21.41204   0.0313  669.  548.   -21.40737
  75000   30.00    -21.41211   0.0293  669.  514.   -21.40992
block <Epot> / <T> :     -21.43009  611.     drift: -0.34D-01   Tbath : 300.
  75200   30.08    -21.41211   0.0374  668.  656.   -21.36491
  75400   30.16    -21.41207   0.0434  668.  762.   -21.36711
  75600   30.24    -21.41203   0.0336  668.  590.   -21.36912
  75800   30.32    -21.41200   0.0301  667.  528.   -21.37262
  76000   30.40    -21.41198   0.0350  667.  613.   -21.37334
  76200   30.48    -21.41197   0.0354  667.  621.   -21.37616
  76400   30.56    -21.41196   0.0209  666.  367.   -21.37932
  76600   30.64    -21.41195   0.0262  666.  460.   -21.38108
  76800   30.72    -21.41194   0.0360  665.  632.   -21.38248
  77000   30.80    -21.41193   0.0213  665.  374.   -21.38349
  77200   30.88    -21.41193   0.0263  664.  461.   -21.38505
  77400   30.96    -21.41193   0.0254  664.  445.   -21.38649
  77600   31.04    -21.41192   0.0393  663.  690.   -21.35053
  77800   31.12    -21.41180   0.0257  663.  452.   -21.34292
  78000   31.20    -21.41171   0.0359  662.  630.   -21.34427
  78200   31.28    -21.41165   0.0396  663.  696.   -21.34927
  78400   31.36    -21.41162   0.0493  663.  865.   -21.35517
  78600   31.44    -21.41159   0.0252  663.  441.   -21.35905
  78800   31.52    -21.41152   0.0298  663.  523.   -21.36037
  79000   31.60    -21.41150   0.0456  663.  799.   -21.36537
  79200   31.68    -21.41148   0.0344  663.  604.   -21.36677
  79400   31.76    -21.41145   0.0256  663.  449.   -21.37000
  79600   31.84    -21.41144   0.0379  663.  665.   -21.37329
  79800   31.92    -21.41143   0.0305  662.  534.   -21.37522
  80000   32.00    -21.41141   0.0271  662.  475.   -21.37729
block <Epot> / <T> :     -21.40084  561.     drift:  0.13D-01   Tbath : 300.
  80200   32.08    -21.41133   0.0221  662.  387.   -21.33364
  80400   32.16    -21.41121   0.0350  661.  613.   -21.33624
  80600   32.24    -21.41112   0.0323  661.  566.   -21.33863
  80800   32.32    -21.41101   0.0328  661.  575.   -21.34048
  81000   32.40    -21.41091   0.0176  660.  309.   -21.34348
  81200   32.48    -21.41082   0.0327  660.  574.   -21.34465
  81400   32.56    -21.41072   0.0267  659.  468.   -21.34685
  81600   32.64    -21.41064   0.0201  659.  353.   -21.34931
  81800   32.72    -21.41055   0.0197  659.  346.   -21.34927
  82000   32.80    -21.41046   0.0205  658.  359.   -21.35177
  82200   32.88    -21.41038   0.0254  658.  445.   -21.35377
  82400   32.96    -21.41031   0.0248  657.  434.   -21.35438
  82600   33.04    -21.41021   0.0273  656.  480.   -21.31886
  82800   33.12    -21.41005   0.0414  656.  727.   -21.31229
  83000   33.20    -21.40992   0.0407  656.  715.   -21.31540
  83200   33.28    -21.40981   0.0553  657.  970.   -21.32044
  83400   33.36    -21.40971   0.0553  657.  970.   -21.32428
  83600   33.44    -21.40960   0.0345  657.  606.   -21.32782
  83800   33.52    -21.40948   0.0315  657.  553.   -21.32999
  84000   33.60    -21.40936   0.0391  656.  686.   -21.33199
  84200   33.68    -21.40926   0.0301  656.  528.   -21.33429
  84400   33.76    -21.40916   0.0385  656.  675.   -21.33723
  84600   33.84    -21.40907   0.0534  656.  937.   -21.33950
  84800   33.92    -21.40899   0.0302  656.  529.   -21.34150
  85000   34.00    -21.40892   0.0352  656.  617.   -21.34462
block <Epot> / <T> :     -21.36891  554.     drift:  0.28D-01   Tbath : 300.
  85200   34.08    -21.40877   0.0459  655.  805.   -21.30077
  85400   34.16    -21.40860   0.0248  655.  435.   -21.30297
  85600   34.24    -21.40843   0.0199  655.  350.   -21.30477
  85800   34.32    -21.40827   0.0326  655.  573.   -21.30848
  86000   34.40    -21.40814   0.0357  655.  627.   -21.31101
  86200   34.48    -21.40800   0.0435  655.  763.   -21.31512
  86400   34.56    -21.40790   0.0524  655.  919.   -21.31937
  86600   34.64    -21.40779   0.0306  655.  537.   -21.32426
  86800   34.72    -21.40767   0.0361  655.  633.   -21.32564
  87000   34.80    -21.40754   0.0329  654.  578.   -21.32640
  87200   34.88    -21.40742   0.0264  654.  463.   -21.32946
  87400   34.96    -21.40730   0.0182  654.  319.   -21.33075
  87600   35.04    -21.40717   0.0306  653.  537.   -21.29648
  87800   35.12    -21.40701   0.0501  653.  879.   -21.29001
  88000   35.20    -21.40683   0.0204  654.  357.   -21.29377
  88200   35.28    -21.40666   0.0378  653.  664.   -21.29558
  88400   35.36    -21.40650   0.0270  653.  474.   -21.29945
  88600   35.44    -21.40635   0.0264  654.  464.   -21.30221
  88800   35.52    -21.40619   0.0323  653.  566.   -21.30555
  89000   35.60    -21.40605   0.0476  653.  835.   -21.30878
  89200   35.68    -21.40591   0.0366  653.  641.   -21.31144
  89400   35.76    -21.40577   0.0247  653.  434.   -21.31419
  89600   35.84    -21.40564   0.0353  653.  620.   -21.31623
  89800   35.92    -21.40551   0.0260  652.  455.   -21.31870
  90000   36.00    -21.40538   0.0238  652.  418.   -21.32044
block <Epot> / <T> :     -21.34525  593.     drift:  0.29D-01   Tbath : 300.
  90200   36.08    -21.40520   0.0348  652.  610.   -21.27620
  90400   36.16    -21.40501   0.0514  652.  901.   -21.27934
  90600   36.24    -21.40483   0.0318  652.  558.   -21.28488
  90800   36.32    -21.40467   0.0516  652.  905.   -21.28793
  91000   36.40    -21.40451   0.0444  653.  779.   -21.29267
  91200   36.48    -21.40436   0.0309  653.  542.   -21.29652
  91400   36.56    -21.40422   0.0416  653.  729.   -21.29991
  91600   36.64    -21.40406   0.0392  653.  688.   -21.30336
  91800   36.72    -21.40392   0.0427  652.  749.   -21.30652
  92000   36.80    -21.40378   0.0426  652.  747.   -21.30884
  92200   36.88    -21.40365   0.0365  652.  639.   -21.31237
  92400   36.96    -21.40352   0.0174  652.  304.   -21.31455
  92600   37.04    -21.40339   0.0321  652.  563.   -21.28216
  92800   37.12    -21.40317   0.0399  651.  700.   -21.27291
  93000   37.20    -21.40298   0.0317  651.  556.   -21.27552
  93200   37.28    -21.40277   0.0307  651.  539.   -21.27812
  93400   37.36    -21.40258   0.0280  651.  492.   -21.28068
  93600   37.44    -21.40237   0.0220  651.  386.   -21.28037
  93800   37.52    -21.40217   0.0381  650.  668.   -21.28304
  94000   37.60    -21.40200   0.0362  650.  634.   -21.28611
  94200   37.68    -21.40182   0.0234  650.  410.   -21.28842
  94400   37.76    -21.40164   0.0276  649.  485.   -21.29014
  94600   37.84    -21.40147   0.0308  649.  540.   -21.29196
  94800   37.92    -21.40130   0.0242  649.  424.   -21.29493
  95000   38.00    -21.40115   0.0230  649.  403.   -21.29875
block <Epot> / <T> :     -21.32477  587.     drift:  0.25D-01   Tbath : 300.
  95200   38.08    -21.40093   0.0217  648.  381.   -21.25320
  95400   38.16    -21.40068   0.0264  648.  464.   -21.25454
  95600   38.24    -21.40046   0.0434  648.  761.   -21.25799
  95800   38.32    -21.40026   0.0440  648.  771.   -21.26169
  96000   38.40    -21.40006   0.0392  648.  688.   -21.26648
  96200   38.48    -21.39987   0.0567  649.  996.   -21.26929
  96400   38.56    -21.39969   0.0414  649.  726.   -21.27294
  96600   38.64    -21.39951   0.0329  649.  577.   -21.27631
  96800   38.72    -21.39933   0.0300  649.  527.   -21.28015
  97000   38.80    -21.39915   0.0240  648.  420.   -21.28309
  97200   38.88    -21.39899   0.0501  648.  879.   -21.28687
  97400   38.96    -21.39885   0.0350  649.  614.   -21.28950
  97600   39.04    -21.39868   0.0362  648.  635.   -21.25717
  97800   39.12    -21.39846   0.0535  649.  938.   -21.25038
  98000   39.20    -21.39828   0.0409  649.  717.   -21.25662
  98200   39.28    -21.39806   0.0423  649.  742.   -21.25916
  98400   39.36    -21.39787   0.0265  649.  464.   -21.26478
  98600   39.44    -21.39767   0.0356  649.  624.   -21.26692
  98800   39.52    -21.39749   0.0411  649.  720.   -21.27090
  99000   39.60    -21.39730   0.0353  649.  619.   -21.27407
  99200   39.68    -21.39713   0.0333  649.  585.   -21.27696
  99400   39.76    -21.39696   0.0206  649.  361.   -21.27948
  99600   39.84    -21.39678   0.0201  649.  352.   -21.27984
  99800   39.92    -21.39661   0.0410  648.  719.   -21.28418
 100000   40.00    -21.39645   0.0282  648.  495.   -21.28464
block <Epot> / <T> :     -21.30716  641.     drift:  0.21D-01   Tbath : 300.
 100200   40.08    -21.39622   0.0187  648.  328.   -21.24003
 100400   40.16    -21.39597   0.0433  648.  760.   -21.24257
 100600   40.24    -21.39577   0.0425  648.  746.   -21.24716
 100800   40.32    -21.39557   0.0454  648.  797.   -21.25308
 101000   40.40    -21.39537   0.0282  648.  494.   -21.25583
 101200   40.48    -21.39518   0.0462  648.  810.   -21.26052
 101400   40.56    -21.39498   0.0321  648.  563.   -21.26266
 101600   40.64    -21.39479   0.0284  648.  498.   -21.26587
 101800   40.72    -21.39462   0.0908  648. 1593.   -21.26881
 102000   40.80    -21.39459   0.1164  651. 2042.   -21.28722
 102200   40.88    -21.39473   0.1444  655. 2533.   -21.31361
 102400   40.96    -21.39493   0.1406  660. 2466.   -21.34265
 102600   41.04    -21.39513   0.1756  664. 3080.   -21.32659
 102800   41.12    -21.39531   0.1436  667. 2519.   -21.34741
 103000   41.20    -21.39554   0.1461  671. 2562.   -21.36925
 103200   41.28    -21.39576   0.1169  674. 2050.   -21.38830
 103400   41.36    -21.39599   0.1056  677. 1853.   -21.40382
 103600   41.44    -21.39624   0.1357  680. 2381.   -21.42396
 103800   41.52    -21.39652   0.1140  682. 2000.   -21.43765
 104000   41.60    -21.39676   0.0856  683. 1502.   -21.44737
 104200   41.68    -21.39701   0.0807  684. 1415.   -21.45329
 104400   41.76    -21.39726   0.0806  685. 1414.   -21.46400
 104600   41.84    -21.39755   0.0789  687. 1383.   -21.47485
 104800   41.92    -21.39784   0.0585  688. 1027.   -21.48454
 105000   42.00    -21.39813   0.0583  688. 1023.   -21.49230
block <Epot> / <T> :     -21.43277 1494.     drift: -0.24D-01   Tbath : 300.
 105200   42.08    -21.39841   0.0723  689. 1268.   -21.45982
 105400   42.16    -21.39869   0.0784  691. 1376.   -21.46982
 105600   42.24    -21.39896   0.0615  692. 1079.   -21.47803
 105800   42.32    -21.39922   0.0611  692. 1072.   -21.48261
 106000   42.40    -21.39950   0.0405  693.  711.   -21.49407
 106200   42.48    -21.39979   0.0481  693.  845.   -21.49756
 106400   42.56    -21.40007   0.0505  694.  887.   -21.50473
 106600   42.64    -21.40036   0.0378  694.  662.   -21.50893
 106800   42.72    -21.40067   0.0379  694.  665.   -21.51371
 107000   42.80    -21.40097   0.0377  695.  661.   -21.51884
 107200   42.88    -21.40129   0.0408  695.  716.   -21.52595
 107400   42.96    -21.40160   0.0426  695.  748.   -21.52843
 107600   43.04    -21.40190   0.0400  695.  702.   -21.50049
 107800   43.12    -21.40216   0.0598  695. 1050.   -21.49295
 108000   43.20    -21.40244   0.0500  696.  878.   -21.50008
 108200   43.28    -21.40272   0.0521  696.  914.   -21.50621
 108400   43.36    -21.40301   0.0458  696.  803.   -21.51185
 108600   43.44    -21.40328   0.0392  696.  687.   -21.51537
 108800   43.52    -21.40356   0.0412  696.  722.   -21.51841
 109000   43.60    -21.40385   0.0328  696.  576.   -21.52222
 109200   43.68    -21.40413   0.0453  696.  795.   -21.52354
 109400   43.76    -21.40441   0.0436  696.  765.   -21.52716
 109600   43.84    -21.40470   0.0357  696.  626.   -21.53014
 109800   43.92    -21.40499   0.0251  696.  441.   -21.53349
 110000   44.00    -21.40528   0.0335  695.  588.   -21.53514
block <Epot> / <T> :     -21.55540  836.     drift: -0.82D-01   Tbath : 300.
 110200   44.08    -21.40554   0.0451  695.  791.   -21.49438
 110400   44.16    -21.40578   0.0369  695.  648.   -21.49930
 110600   44.24    -21.40603   0.0550  695.  964.   -21.50267
 110800   44.32    -21.40630   0.0339  696.  594.   -21.50699
 111000   44.40    -21.40655   0.0335  696.  588.   -21.51052
 111200   44.48    -21.40680   0.0328  695.  575.   -21.51387
 111400   44.56    -21.40705   0.0315  695.  553.   -21.51639
 111600   44.64    -21.40730   0.0271  695.  476.   -21.51951
 111800   44.72    -21.40756   0.0285  694.  499.   -21.52164
 112000   44.80    -21.40782   0.0182  694.  319.   -21.52272
 112200   44.88    -21.40807   0.0214  694.  376.   -21.52423
 112400   44.96    -21.40832   0.0306  693.  537.   -21.52700
 112600   45.04    -21.40859   0.0420  693.  737.   -21.49876
 112800   45.12    -21.40883   0.0417  693.  732.   -21.49215
 113000   45.20    -21.40905   0.0376  693.  659.   -21.49692
 113200   45.28    -21.40926   0.0309  693.  542.   -21.49880
 113400   45.36    -21.40948   0.0436  693.  765.   -21.50086
 113600   45.44    -21.40974   0.0406  693.  712.   -21.50710
 113800   45.52    -21.40998   0.0423  693.  741.   -21.51089
 114000   45.60    -21.41024   0.0517  693.  907.   -21.51389
 114200   45.68    -21.41050   0.0493  694.  864.   -21.51944
 114400   45.76    -21.41077   0.0321  694.  562.   -21.52391
 114600   45.84    -21.41102   0.0248  693.  435.   -21.52700
 114800   45.92    -21.41127   0.0302  693.  530.   -21.52773
 115000   46.00    -21.41152   0.0218  693.  382.   -21.52983
block <Epot> / <T> :     -21.54878  634.     drift: -0.85D-01   Tbath : 300.
 115200   46.08    -21.41173   0.0375  692.  659.   -21.48639
 115400   46.16    -21.41197   0.0651  693. 1143.   -21.49257
 115600   46.24    -21.41221   0.0469  693.  822.   -21.49764
 115800   46.32    -21.41243   0.0312  693.  547.   -21.50183
 116000   46.40    -21.41266   0.0422  693.  740.   -21.50428
 116200   46.48    -21.41289   0.0400  693.  702.   -21.51002
 116400   46.56    -21.41312   0.0406  693.  712.   -21.51325
 116600   46.64    -21.41336   0.0329  693.  577.   -21.51591
 116800   46.72    -21.41358   0.0299  693.  524.   -21.51807
 117000   46.80    -21.41382   0.0431  693.  757.   -21.52052
 117200   46.88    -21.41407   0.0391  693.  686.   -21.52358
 117400   46.96    -21.41431   0.0248  692.  434.   -21.52662
 117600   47.04    -21.41454   0.0298  692.  522.   -21.49491
 117800   47.12    -21.41472   0.0508  692.  892.   -21.48564
 118000   47.20    -21.41494   0.0495  692.  869.   -21.49063
 118200   47.28    -21.41517   0.0637  693. 1117.   -21.49757
 118400   47.36    -21.41540   0.0364  693.  638.   -21.50225
 118600   47.44    -21.41561   0.0380  693.  666.   -21.50559
 118800   47.52    -21.41584   0.0357  693.  627.   -21.51071
 119000   47.60    -21.41608   0.0456  693.  800.   -21.51556
 119200   47.68    -21.41631   0.0382  693.  670.   -21.51917
 119400   47.76    -21.41655   0.0370  693.  649.   -21.52192
 119600   47.84    -21.41678   0.0383  693.  671.   -21.52482
 119800   47.92    -21.41702   0.0225  693.  394.   -21.52663
 120000   48.00    -21.41724   0.0262  692.  459.   -21.52788
block <Epot> / <T> :     -21.54878  688.     drift: -0.34D-01   Tbath : 300.
 120200   48.08    -21.41745   0.0577  692. 1011.   -21.48743
 120400   48.16    -21.41766   0.0435  693.  763.   -21.49298
 120600   48.24    -21.41788   0.0564  693.  990.   -21.49806
 120800   48.32    -21.41808   0.0369  693.  647.   -21.50277
 121000   48.40    -21.41829   0.0382  693.  670.   -21.50603
 121200   48.48    -21.41850   0.0373  693.  654.   -21.50984
 121400   48.56    -21.41870   0.0267  693.  468.   -21.51166
 121600   48.64    -21.41890   0.0267  693.  468.   -21.51307
 121800   48.72    -21.41910   0.0301  692.  529.   -21.51464
 122000   48.80    -21.41932   0.0313  692.  548.   -21.51780
 122200   48.88    -21.41953   0.0238  692.  418.   -21.51904
 122400   48.96    -21.41973   0.0318  691.  559.   -21.52061
 122600   49.04    -21.41993   0.0279  691.  489.   -21.49082
 122800   49.12    -21.42008   0.0315  691.  553.   -21.47929
 123000   49.20    -21.42024   0.0459  691.  806.   -21.48273
 123200   49.28    -21.42041   0.0463  691.  813.   -21.48770
 123400   49.36    -21.42061   0.0475  691.  834.   -21.49336
 123600   49.44    -21.42080   0.0467  691.  819.   -21.49761
 123800   49.52    -21.42100   0.0441  691.  774.   -21.50371
 124000   49.60    -21.42120   0.0348  691.  611.   -21.50603
 124200   49.68    -21.42139   0.0264  691.  463.   -21.50843
 124400   49.76    -21.42157   0.0328  691.  576.   -21.50924
 124600   49.84    -21.42177   0.0414  691.  726.   -21.51223
 124800   49.92    -21.42198   0.0326  691.  572.   -21.51679
 average properties 
 Epot               :  -21.4221785476512     
 Epot (accurate SCC):  -21.4223450123952     
 Ekin               :  3.934563560952334E-002
 Etot               :  -21.3828329120417     
 T                  :   690.243376180873     
 thermostating problem
 normal exit of md()

------------------------------------------------------------------------
 * finished run on 2021/03/15 at 00:22:55.833     
------------------------------------------------------------------------
 total:
 * wall-time:     0 d,  0 h, 25 min, 46.755 sec
 *  cpu-time:     0 d,  0 h, 25 min, 24.556 sec
 * ratio c/w:     0.986 speedup
 SCF:
 * wall-time:     0 d,  0 h,  0 min,  0.889 sec
 *  cpu-time:     0 d,  0 h,  0 min,  0.040 sec
 * ratio c/w:     0.045 speedup
 MD:
 * wall-time:     0 d,  0 h, 25 min, 44.603 sec
 *  cpu-time:     0 d,  0 h, 25 min, 24.476 sec
 * ratio c/w:     0.987 speedup

