      -----------------------------------------------------------      
     |                   =====================                   |     
     |                           x T B                           |     
     |                   =====================                   |     
     |                         S. Grimme                         |     
     |          Mulliken Center for Theoretical Chemistry        |     
     |                    University of Bonn                     |     
     |                 Version 6.1.4 (SAW190525)                 |     
      -----------------------------------------------------------      

   This program is distributed in the hope that it will be useful,
   but WITHOUT ANY WARRANTY; without even the implied warranty of
   MERCHANTABILITY or FITNESS FOR A PARTICULAR PURPOSE.
   
   FOR NON-COMMERCIAL, ACADEMIA USE ONLY.
   
   Cite this work as:
   S. Grimme, C. Bannwarth, P. Shushkov, J. Comput. Theory Chem., 2017,
   13, 1989-2009. DOI: 10.1021/acs.jctc.7b00118
   C. Bannwarth, S. Ehlert and S. Grimme., J. Comput. Theory Chem., 2019,
   just accepted. DOI: 10.1021/acs.jctc.8b01176
   
   for sTDA-xTB:
   S. Grimme and C. Bannwarth, J. Chem. Phys., 2016, 145, 054103.
   DOI: 10.1063/1.4959605
   
   in the mass-spec context:
   V. Asgeirsson, C. Bauer and S. Grimme, Chem. Sci., 2017, 8, 4879.
   DOI: 10.1039/c7sc00601b
   
   for metadynamics refer to:
   S. Grimme, J. Chem. Theory Comput. Article ASAP, 2019,
   DOI: 10.1021/acs.jctc.9b00143
   
   with help from (in alphabetical order)
   C. Bannwarth, F. Bohle, G. Brandenburg, E. Caldeweyher, M. Checinski,
   S. Dohm, S. Ehlert, S. Ehrlich, F. März, H. Neugebauer, J. Pisarek,
   P. Pracht, P. Shushkov, and S. Spicher.
   
 * started run on 2021/03/14 at 23:57:09.074     

           -------------------------------------------------
          |                Calculation Setup                |
           -------------------------------------------------

          program call               : /opt/xtb/6.1/xtb-190527/bin/xtb 0.8_md.xyz --md --input metadyn.inp --gfn 2
          hostname                   : mnode007
          coordinate file            : 0.8_md.xyz
          omp threads                :                     1
          number of atoms            :                    12
          number of electrons        :                    36
          charge                     :                     0
          spin                       :                   0.0
          first test random number   :      0.11978720323272

spherical wallpotenial with radius    3.6488561 Å

########################################################################
# WARNING! Please study the warnings concerning your input carefully
#  - XTBPATH is not set, using XTBHOME instead
########################################################################

           ------------------------------------------------- 
          |                 G F N 2 - x T B                 |
          | Geometry, Frequencies, Noncovalent interactions |
          |            JCTC 2018 parametrisation            |
           ------------------------------------------------- 
             k(s)              :                1.8500
             k(p)              :                2.2300
             k(d)              :                2.2300
             k(f)              :                2.0000
             kEN (H0ij)        :               -2.0000
             D4 a1             :                0.5200
             D4 a2             :                5.0000
             D4 s6             :                1.0000
             D4 s8             :                2.7000
             D4 s9             :                5.0000
             alphaj            :                2.0000

  Z AO/shell   Hii/eV     exponent
  1     Wed Apr 25 08:07:45 CEST 2018   EN: 2.200 GM2: 0.406  GM3: 0.0800  RAES: 1.40
     1s    -10.707211    1.230000
  6     Wed Apr 25 08:07:45 CEST 2018   EN: 2.550 GM2: 0.538  GM3: 0.1500  RAES: 3.00
     2s    -13.970922    2.096432
     2p    -10.063292    1.800000
  8     Wed Apr 25 08:07:45 CEST 2018   EN: 3.440 GM2: 0.452  GM3:-0.0517  RAES: 1.80
     2s    -20.229985    2.439742
     2p    -15.503117    2.137023


            Z     q(EN)     CN     RAES       Cart. coordinates
     1  C   4.0    0.08    2.99    3.02     1.70115     3.61696     0.19176
     2  O   6.0   -0.34    1.00    1.80     2.76313     4.75510     1.91162
     3  C   4.0   -0.10    3.98    3.58    -0.18770     1.53135     0.59324
     4  H   1.0    0.14    0.99    1.43     1.97669     4.44918    -1.70038
     5  C   4.0   -0.05    3.97    3.58     0.30679    -0.98032    -0.69709
     6  H   1.0    0.11    0.99    1.43    -2.08854     1.91092    -0.12730
     7  H   1.0    0.16    0.99    1.43    -0.44973     0.90749     2.54819
     8  O   6.0   -0.18    1.91    1.82     2.23118    -2.52459     0.39285
     9  H   1.0    0.13    0.99    1.43     1.35130    -0.57309    -2.43866
    10  H   1.0    0.12    0.99    1.43    -1.37234    -2.17656    -0.88601
    11  O   6.0   -0.33    1.92    1.82     1.34757    -3.59150     2.76784
    12  H   1.0    0.26    0.99    1.43     0.03035    -4.78196     2.27725

           ------------------------------------------------- 
          |        Self-Consistent Charge Iterations        |
           ------------------------------------------------- 

          ...................................................
          :                      SETUP                      :
          :.................................................:
          :  # basis functions                  30          :
          :  # atomic orbitals                  30          :
          :  # shells                           18          :
          :  # electrons                        36          :
          :  max. iterations                   250          :
          :  Hamiltonian                  GFN2-xTB          :
          :  restarted?                      false          :
          :  GBSA solvation                  false          :
          :  PC potential                    false          :
          :  electronic temp.         6000.0000000     K    :
          :  accuracy                    1.0000000          :
          :  -> integral cutoff          0.2500000E+02      :
          :  -> integral neglect         0.1000000E-07      :
          :  -> SCF convergence          0.1000000E-05 Eh   :
          :  -> wf. convergence          0.1000000E-03 e    :
          :  Broyden damping             0.4000000          :
          ...................................................

 iter      E             dE          RMSdq      gap      omega  full diag
   1    -21.6702265 -0.216702E+02  0.496E+00    4.29       0.0  T
   2    -21.7023194 -0.320929E-01  0.253E+00    3.37       1.0  T
   3    -21.7027552 -0.435805E-03  0.173E+00    3.94       1.0  T
   4    -21.7113735 -0.861828E-02  0.178E-01    3.58       1.0  T
   5    -21.7115502 -0.176679E-03  0.867E-02    3.62       1.0  T
   6    -21.7115572 -0.707884E-05  0.300E-02    3.62       1.0  T
   7    -21.7115585 -0.122356E-05  0.963E-03    3.62       3.0  T
   8    -21.7115588 -0.327393E-06  0.436E-03    3.62       6.6  T
   9    -21.7115588 -0.383045E-07  0.168E-03    3.62      17.2  T
  10    -21.7115588 -0.146807E-07  0.903E-04    3.62      32.0  T
  11    -21.7115588 -0.512560E-08  0.380E-04    3.62      75.9  T

   *** convergence criteria satisfied after 11 iterations ***

         #    Occupation            Energy/Eh            Energy/eV
      -------------------------------------------------------------
         1        2.0000           -0.7361143             -20.0307
       ...           ...                  ...                  ...
        12        1.9999           -0.5382571             -14.6467
        13        1.9997           -0.5152401             -14.0204
        14        1.9991           -0.4930477             -13.4165
        15        1.9988           -0.4872801             -13.2596
        16        1.9975           -0.4722624             -12.8509
        17        1.9894           -0.4449769             -12.1084
        18        1.9486           -0.4146387             -11.2829 (HOMO)
        19        0.0665           -0.2815404              -7.6611 (LUMO)
        20        0.0004           -0.1850042              -5.0342
        21                         -0.0024067              -0.0655
        22                          0.0375441               1.0216
        23                          0.0666165               1.8127
       ...                                ...                  ...
        30                          0.5137196              13.9790
      -------------------------------------------------------------
                  HL-Gap            0.1330983 Eh            3.6218 eV
             Fermi-level           -0.3455576 Eh           -9.4031 eV

 SCC (total)                   0 d,  0 h,  0 min,  0.797 sec
 SCC setup                      ...        0 min,  0.001 sec (  0.065%)
 Dispersion                     ...        0 min,  0.000 sec (  0.017%)
 integral evaluation            ...        0 min,  0.003 sec (  0.418%)
 zeroth order Hamiltonian       ...        0 min,  0.341 sec ( 42.810%)
 iterations                     ...        0 min,  0.015 sec (  1.853%)
 molecular gradient             ...        0 min,  0.005 sec (  0.675%)
 printout                       ...        0 min,  0.432 sec ( 54.156%)

         :::::::::::::::::::::::::::::::::::::::::::::::::::::
         ::                     SUMMARY                     ::
         :::::::::::::::::::::::::::::::::::::::::::::::::::::
         :: total energy              -21.548143286976 Eh   ::
         :: gradient norm               0.093719956061 Eh/α ::
         :: HOMO-LUMO gap               3.621789070107 eV   ::
         ::.................................................::
         :: SCC energy                -21.711558840014 Eh   ::
         :: -> isotropic ES             0.050736561677 Eh   ::
         :: -> anisotropic ES          -0.002909442484 Eh   ::
         :: -> anisotropic XC          -0.002012016729 Eh   ::
         :: -> dispersion              -0.005692119884 Eh   ::
         :: repulsion energy            0.163409202746 Eh   ::
         :: add. restraining            0.000000418606 Eh   ::
         :::::::::::::::::::::::::::::::::::::::::::::::::::::

           -------------------------------------------------
          |                Property Printout                |
           -------------------------------------------------

    * Orbital Energies and Occupations

         #    Occupation            Energy/Eh            Energy/eV
      -------------------------------------------------------------
         1        2.0000           -0.7361143             -20.0307
       ...           ...                  ...                  ...
         6        2.0000           -0.6193096             -16.8523
         7        2.0000           -0.5976488             -16.2629
         8        2.0000           -0.5938216             -16.1587
         9        2.0000           -0.5836884             -15.8830
        10        2.0000           -0.5578737             -15.1805
        11        2.0000           -0.5498279             -14.9616
        12        1.9999           -0.5382571             -14.6467
        13        1.9997           -0.5152401             -14.0204
        14        1.9991           -0.4930477             -13.4165
        15        1.9988           -0.4872801             -13.2596
        16        1.9975           -0.4722624             -12.8509
        17        1.9894           -0.4449769             -12.1084
        18        1.9486           -0.4146387             -11.2829 (HOMO)
        19        0.0665           -0.2815404              -7.6611 (LUMO)
        20        0.0004           -0.1850042              -5.0342
        21                         -0.0024067              -0.0655
        22                          0.0375441               1.0216
        23                          0.0666165               1.8127
        24                          0.1208142               3.2875
        25                          0.1359414               3.6992
        26                          0.1485448               4.0421
        27                          0.1874005               5.0994
        28                          0.2193265               5.9682
        29                          0.2923158               7.9543
        30                          0.5137196              13.9790
      -------------------------------------------------------------
                  HL-Gap            0.1330983 Eh            3.6218 eV
             Fermi-level           -0.3455576 Eh           -9.4031 eV

   #   Z        covCN         q      C6AA      α(0)
   1   6 C      2.756     0.204    23.659     7.965
   2   8 O      0.856    -0.315    20.059     6.005
   3   6 C      3.801    -0.089    22.206     6.709
   4   1 H      0.923     0.041     2.440     2.443
   5   6 C      3.674     0.076    19.543     6.335
   6   1 H      0.924     0.074     2.046     2.237
   7   1 H      0.924     0.097     1.816     2.108
   8   8 O      1.753    -0.211    17.497     5.648
   9   1 H      0.924     0.081     1.970     2.195
  10   1 H      0.924     0.048     2.340     2.392
  11   8 O      1.709    -0.313    19.227     5.920
  12   1 H      0.804     0.309     0.695     1.309

 Mol. C6AA /au·bohr⁶  :       1227.557494
 Mol. C8AA /au·bohr⁸  :      26109.840012
 Mol. α(0) /au        :         51.266256


Wiberg/Mayer (AO) data.
largest (>0.10) Wiberg bond orders for each atom
          total WBO             WBO to atom ...
     1  C   3.848        O    2 1.877    C    3 1.008    H    4 0.932
     2  O   2.008        C    1 1.877
     3  C   3.971        C    1 1.008    C    5 0.980    H    7 0.959    H    6 0.942
     4  H   0.984        C    1 0.932
     5  C   3.938        O    8 0.987    C    3 0.980    H   10 0.966    H    9 0.948
     6  H   0.990        C    3 0.942
     7  H   0.989        C    3 0.959
     8  O   2.019        C    5 0.987    O   11 0.970
     9  H   0.992        C    5 0.948
    10  H   0.995        C    5 0.966
    11  O   1.921        O    8 0.970    H   12 0.895
    12  H   0.904        O   11 0.895

molecular dipole:
                 x           y           z       tot (Debye)
 q only:       -1.441      -0.533      -0.988
   full:       -1.769      -0.737      -1.261       5.831
molecular quadrupole (traceless):
                xx          xy          yy          xz          yz          zz
 q only:       -1.588      -0.172       0.196      -5.059      -4.035       1.393
  q+dip:       -1.532       1.272       1.003      -6.868      -5.304       0.529
   full:       -1.510       0.272       0.955      -6.901      -5.365       0.555


           -------------------------------------------------
          | TOTAL ENERGY              -21.548143286976 Eh   |
          | GRADIENT NORM               0.093719956061 Eh/α |
          | HOMO-LUMO GAP               3.621789070107 eV   |
           -------------------------------------------------
           ------------------------------------------------- 
          |                  Meta Dynamics                  |
           ------------------------------------------------- 
 trajectories on xtb.trj or xtb.trj.<n>
 
 MD time /ps        :   50.00
 dt /fs             :    0.40
 SCC accuracy       :    2.00
 temperature /K     :  300.00
 max steps          :125000
 block length (av.) :  5000
 dumpstep(trj) /fs  :   10.00    25
 dumpstep(coords)/fs: 1000.00  2500
 H atoms mass (amu) :     2
 # deg. of freedom  :    36
 SHAKE off
 Berendsen THERMOSTAT on
kpush  :    0.050
alpha  :    0.300
update : 100
         time (ps)    <Epot>      Ekin   <T>   T     Etot
      0    0.00      0.00000   0.0428    0.    0.   -21.45539
est. speed in wall clock h for 100 ps :  0.93
    200    0.08    -21.40264   0.0443  637.  777.   -21.46662
    400    0.16    -21.45909   0.0606  741. 1062.   -21.47110
    600    0.24    -21.48320   0.0427  831.  749.   -21.47548
    800    0.32    -21.49154   0.0386  790.  677.   -21.47984
   1000    0.40    -21.49755   0.0482  771.  846.   -21.48223
   1200    0.48    -21.50243   0.0362  762.  635.   -21.48861
   1400    0.56    -21.50711   0.0420  767.  737.   -21.49119
   1600    0.64    -21.51004   0.0272  751.  478.   -21.49442
   1800    0.72    -21.51299   0.0402  745.  705.   -21.49900
   2000    0.80    -21.51473   0.0301  723.  528.   -21.49966
   2200    0.88    -21.51687   0.0392  715.  687.   -21.50311
   2400    0.96    -21.51862   0.0201  702.  353.   -21.50714
   2600    1.04    -21.51921   0.0259  692.  455.   -21.46697
   2800    1.12    -21.51750   0.0347  681.  609.   -21.46434
   3000    1.20    -21.51710   0.0524  689.  920.   -21.46822
   3200    1.28    -21.51657   0.0463  687.  811.   -21.47071
   3400    1.36    -21.51618   0.0359  684.  630.   -21.47463
   3600    1.44    -21.51617   0.0349  684.  612.   -21.47845
   3800    1.52    -21.51602   0.0402  678.  705.   -21.48124
   4000    1.60    -21.51590   0.0281  672.  492.   -21.48494
   4200    1.68    -21.51600   0.0373  667.  655.   -21.48602
   4400    1.76    -21.51595   0.0256  659.  449.   -21.48908
   4600    1.84    -21.51622   0.0326  656.  572.   -21.49038
   4800    1.92    -21.51648   0.0266  651.  466.   -21.49349
block <Epot> / <T> :     -21.52097  644.     drift:  0.99D+02   Tbath : 300.
   5000    2.00    -21.51667   0.0361  644.  633.   -21.49523
   5200    2.08    -21.51601   0.0436  646.  764.   -21.45306
   5400    2.16    -21.51579   0.0540  657.  947.   -21.45864
   5600    2.24    -21.51554   0.0415  663.  728.   -21.46531
   5800    2.32    -21.51497   0.0372  661.  652.   -21.46744
   6000    2.40    -21.51483   0.0503  663.  882.   -21.46964
   6200    2.48    -21.51480   0.0337  666.  591.   -21.47518
   6400    2.56    -21.51455   0.0331  662.  580.   -21.47667
   6600    2.64    -21.51453   0.0261  661.  457.   -21.48040
   6800    2.72    -21.51444   0.0255  657.  447.   -21.48173
   7000    2.80    -21.51438   0.0275  653.  482.   -21.48345
   7200    2.88    -21.51441   0.0284  650.  499.   -21.48571
   7400    2.96    -21.51442   0.0301  646.  528.   -21.48735
   7600    3.04    -21.51410   0.0323  641.  567.   -21.44625
   7800    3.12    -21.51304   0.0276  637.  484.   -21.44434
   8000    3.20    -21.51264   0.0550  644.  965.   -21.44955
   8200    3.28    -21.51239   0.0377  649.  661.   -21.45507
   8400    3.36    -21.51174   0.0256  646.  450.   -21.45760
   8600    3.44    -21.51143   0.0345  647.  604.   -21.46128
   8800    3.52    -21.51118   0.0411  648.  722.   -21.46454
   9000    3.60    -21.51103   0.0419  648.  734.   -21.46678
   9200    3.68    -21.51079   0.0194  646.  340.   -21.46956
   9400    3.76    -21.51056   0.0414  643.  727.   -21.47230
   9600    3.84    -21.51053   0.0402  643.  705.   -21.47516
   9800    3.92    -21.51054   0.0332  642.  583.   -21.47800
  10000    4.00    -21.51044   0.0203  639.  356.   -21.47982
block <Epot> / <T> :     -21.50419  634.     drift:  0.99D+02   Tbath : 300.
  10200    4.08    -21.50984   0.0553  639.  969.   -21.43577
  10400    4.16    -21.50935   0.0392  642.  688.   -21.44048
  10600    4.24    -21.50861   0.0380  639.  666.   -21.44236
  10800    4.32    -21.50822   0.0516  641.  905.   -21.44593
  11000    4.40    -21.50803   0.0440  645.  771.   -21.45229
  11200    4.48    -21.50758   0.0222  643.  390.   -21.45386
  11400    4.56    -21.50733   0.0345  644.  605.   -21.45719
  11600    4.64    -21.50711   0.0434  643.  761.   -21.45995
  11800    4.72    -21.50690   0.0326  642.  572.   -21.46284
  12000    4.80    -21.50678   0.0372  642.  653.   -21.46543
  12200    4.88    -21.50662   0.0258  640.  452.   -21.46795
  12400    4.96    -21.50645   0.0263  638.  461.   -21.46898
  12600    5.04    -21.50604   0.0242  634.  425.   -21.42741
  12800    5.12    -21.50516   0.0226  631.  396.   -21.42356
  13000    5.20    -21.50455   0.0260  632.  456.   -21.42753
  13200    5.28    -21.50413   0.0424  635.  743.   -21.43201
  13400    5.36    -21.50359   0.0303  635.  531.   -21.43621
  13600    5.44    -21.50301   0.0277  633.  486.   -21.43614
  13800    5.52    -21.50253   0.0435  632.  763.   -21.43978
  14000    5.60    -21.50218   0.0491  632.  861.   -21.44230
  14200    5.68    -21.50191   0.0361  633.  633.   -21.44683
  14400    5.76    -21.50159   0.0313  631.  549.   -21.44898
  14600    5.84    -21.50140   0.0361  632.  633.   -21.45173
  14800    5.92    -21.50115   0.0293  631.  513.   -21.45317
  15000    6.00    -21.50087   0.0234  628.  410.   -21.45564
block <Epot> / <T> :     -21.48172  606.     drift:  0.99D+02   Tbath : 300.
  15200    6.08    -21.50024   0.0431  627.  755.   -21.41072
  15400    6.16    -21.49972   0.0435  630.  763.   -21.41437
  15600    6.24    -21.49920   0.0418  631.  733.   -21.42024
  15800    6.32    -21.49871   0.0375  632.  657.   -21.42376
  16000    6.40    -21.49826   0.0444  632.  779.   -21.42669
  16200    6.48    -21.49798   0.0418  635.  733.   -21.43158
  16400    6.56    -21.49758   0.0276  634.  485.   -21.43365
  16600    6.64    -21.49720   0.0291  633.  511.   -21.43610
  16800    6.72    -21.49691   0.0333  633.  584.   -21.43937
  17000    6.80    -21.49663   0.0414  632.  726.   -21.44089
  17200    6.88    -21.49645   0.0254  633.  445.   -21.44433
  17400    6.96    -21.49617   0.0248  631.  435.   -21.44537
  17600    7.04    -21.49577   0.0294  629.  515.   -21.40471
  17800    7.12    -21.49509   0.0377  628.  662.   -21.40275
  18000    7.20    -21.49443   0.0441  628.  774.   -21.40405
  18200    7.28    -21.49404   0.0439  630.  770.   -21.40968
  18400    7.36    -21.49359   0.0365  631.  640.   -21.41422
  18600    7.44    -21.49316   0.0282  632.  494.   -21.41772
  18800    7.52    -21.49270   0.0328  631.  575.   -21.41997
  19000    7.60    -21.49233   0.0246  631.  432.   -21.42273
  19200    7.68    -21.49192   0.0281  630.  493.   -21.42477
  19400    7.76    -21.49158   0.0396  629.  694.   -21.42755
  19600    7.84    -21.49126   0.0348  628.  610.   -21.42885
  19800    7.92    -21.49097   0.0255  628.  447.   -21.43238
  20000    8.00    -21.49064   0.0318  626.  557.   -21.43337
block <Epot> / <T> :     -21.45993  619.     drift:  0.21D-01   Tbath : 300.
  20200    8.08    -21.48994   0.0385  623.  675.   -21.38594
  20400    8.16    -21.48933   0.0545  624.  957.   -21.39066
  20600    8.24    -21.48889   0.0429  627.  752.   -21.39562
  20800    8.32    -21.48834   0.0388  627.  681.   -21.39830
  21000    8.40    -21.48777   0.0258  626.  452.   -21.40011
  21200    8.48    -21.48725   0.0388  625.  681.   -21.40166
  21400    8.56    -21.48678   0.0319  625.  559.   -21.40439
  21600    8.64    -21.48626   0.0345  623.  604.   -21.40600
  21800    8.72    -21.48578   0.0253  622.  444.   -21.40733
  22000    8.80    -21.48527   0.0317  619.  556.   -21.40779
  22200    8.88    -21.48479   0.0253  618.  444.   -21.40937
  22400    8.96    -21.48440   0.0355  617.  622.   -21.41174
  22600    9.04    -21.48399   0.0440  617.  772.   -21.37373
  22800    9.12    -21.48331   0.0320  617.  561.   -21.37150
  23000    9.20    -21.48279   0.0446  619.  783.   -21.37604
  23200    9.28    -21.48226   0.0478  621.  839.   -21.38058
  23400    9.36    -21.48180   0.0458  622.  804.   -21.38480
  23600    9.44    -21.48137   0.0467  623.  819.   -21.38924
  23800    9.52    -21.48100   0.0354  625.  621.   -21.39297
  24000    9.60    -21.48057   0.0272  625.  477.   -21.39680
  24200    9.68    -21.48018   0.0307  624.  539.   -21.39920
  24400    9.76    -21.47979   0.0373  624.  654.   -21.40185
  24600    9.84    -21.47941   0.0293  623.  514.   -21.40400
  24800    9.92    -21.47904   0.0200  622.  351.   -21.40585
  25000   10.00    -21.47869   0.0262  621.  460.   -21.40782
block <Epot> / <T> :     -21.43087  603.     drift:  0.24D-01   Tbath : 300.
  25200   10.08    -21.47811   0.0309  620.  543.   -21.36526
  25400   10.16    -21.47750   0.0427  620.  749.   -21.36728
  25600   10.24    -21.47692   0.0271  620.  476.   -21.36992
  25800   10.32    -21.47637   0.0383  620.  672.   -21.37193
  26000   10.40    -21.47582   0.0397  620.  696.   -21.37438
  26200   10.48    -21.47528   0.0253  619.  443.   -21.37627
  26400   10.56    -21.47476   0.0281  618.  492.   -21.37918
  26600   10.64    -21.47424   0.0230  617.  403.   -21.38008
  26800   10.72    -21.47374   0.0210  616.  369.   -21.38162
  27000   10.80    -21.47329   0.0336  615.  590.   -21.38412
  27200   10.88    -21.47284   0.0271  614.  475.   -21.38641
  27400   10.96    -21.47241   0.0268  613.  470.   -21.38734
  27600   11.04    -21.47192   0.0202  612.  355.   -21.34760
  27800   11.12    -21.47117   0.0259  611.  454.   -21.34230
  28000   11.20    -21.47044   0.0243  610.  426.   -21.34365
  28200   11.28    -21.46977   0.0363  609.  637.   -21.34557
  28400   11.36    -21.46919   0.0491  610.  861.   -21.35130
  28600   11.44    -21.46875   0.0574  612. 1007.   -21.35657
  28800   11.52    -21.46830   0.0445  614.  781.   -21.35938
  29000   11.60    -21.46786   0.0420  615.  737.   -21.36308
  29200   11.68    -21.46739   0.0496  614.  870.   -21.36643
  29400   11.76    -21.46701   0.0451  615.  791.   -21.37198
  29600   11.84    -21.46671   0.0392  617.  688.   -21.37511
  29800   11.92    -21.46638   0.0470  617.  824.   -21.38058
  30000   12.00    -21.46606   0.0286  617.  502.   -21.38472
block <Epot> / <T> :     -21.40290  599.     drift:  0.27D-01   Tbath : 300.
  30200   12.08    -21.46556   0.0593  618. 1041.   -21.34017
  30400   12.16    -21.46514   0.0544  621.  954.   -21.34579
  30600   12.24    -21.46471   0.0577  622. 1013.   -21.35098
  30800   12.32    -21.46430   0.0628  624. 1102.   -21.35687
  31000   12.40    -21.46390   0.0383  625.  671.   -21.36167
  31200   12.48    -21.46351   0.0400  625.  701.   -21.36532
  31400   12.56    -21.46315   0.0350  626.  613.   -21.36725
  31600   12.64    -21.46280   0.0265  626.  465.   -21.37158
  31800   12.72    -21.46246   0.0422  626.  741.   -21.37529
  32000   12.80    -21.46213   0.0256  626.  449.   -21.37684
  32200   12.88    -21.46179   0.0389  625.  683.   -21.37953
  32400   12.96    -21.46150   0.0280  625.  491.   -21.38320
  32600   13.04    -21.46114   0.0294  624.  516.   -21.34452
  32800   13.12    -21.46063   0.0349  624.  613.   -21.34211
  33000   13.20    -21.46015   0.0373  625.  655.   -21.34463
  33200   13.28    -21.45970   0.0289  625.  508.   -21.34686
  33400   13.36    -21.45924   0.0254  625.  446.   -21.35067
  33600   13.44    -21.45878   0.0271  624.  476.   -21.35124
  33800   13.52    -21.45836   0.0338  624.  592.   -21.35536
  34000   13.60    -21.45793   0.0286  623.  501.   -21.35740
  34200   13.68    -21.45751   0.0246  623.  431.   -21.35997
  34400   13.76    -21.45707   0.0235  621.  412.   -21.36110
  34600   13.84    -21.45666   0.0247  620.  433.   -21.36085
  34800   13.92    -21.45626   0.0196  619.  343.   -21.36378
  35000   14.00    -21.45586   0.0247  618.  434.   -21.36361
block <Epot> / <T> :     -21.39463  620.     drift:  0.22D-01   Tbath : 300.
  35200   14.08    -21.45529   0.0231  617.  405.   -21.31949
  35400   14.16    -21.45471   0.0415  617.  728.   -21.32150
  35600   14.24    -21.45420   0.0269  617.  472.   -21.32424
  35800   14.32    -21.45368   0.0420  617.  737.   -21.32785
  36000   14.40    -21.45323   0.0458  618.  804.   -21.33215
  36200   14.48    -21.45280   0.0301  618.  528.   -21.33740
  36400   14.56    -21.45237   0.0406  619.  711.   -21.33867
  36600   14.64    -21.45197   0.0343  619.  601.   -21.34356
  36800   14.72    -21.45156   0.0343  619.  602.   -21.34458
  37000   14.80    -21.45118   0.0387  619.  679.   -21.34672
  37200   14.88    -21.45082   0.0317  618.  556.   -21.35006
  37400   14.96    -21.45043   0.0310  618.  543.   -21.35318
  37600   15.04    -21.45000   0.0320  617.  561.   -21.31252
  37800   15.12    -21.44949   0.0560  618.  983.   -21.31229
  38000   15.20    -21.44903   0.0407  619.  715.   -21.31662
  38200   15.28    -21.44854   0.0361  619.  634.   -21.31969
  38400   15.36    -21.44805   0.0403  619.  706.   -21.32203
  38600   15.44    -21.44758   0.0342  619.  600.   -21.32436
  38800   15.52    -21.44712   0.0324  619.  568.   -21.32718
  39000   15.60    -21.44669   0.0347  619.  609.   -21.33026
  39200   15.68    -21.44626   0.0281  618.  493.   -21.33224
  39400   15.76    -21.44582   0.0366  618.  642.   -21.33370
  39600   15.84    -21.44544   0.0354  617.  620.   -21.33796
  39800   15.92    -21.44507   0.0298  617.  524.   -21.33952
  40000   16.00    -21.44470   0.0335  617.  588.   -21.34035
block <Epot> / <T> :     -21.36657  611.     drift:  0.20D-01   Tbath : 300.
  40200   16.08    -21.44420   0.0337  617.  591.   -21.29846
  40400   16.16    -21.44369   0.0425  617.  746.   -21.30276
  40600   16.24    -21.44318   0.0418  617.  733.   -21.30641
  40800   16.32    -21.44269   0.0451  617.  790.   -21.30966
  41000   16.40    -21.44227   0.0397  618.  696.   -21.31266
  41200   16.48    -21.44181   0.0272  618.  476.   -21.31691
  41400   16.56    -21.44137   0.0301  618.  529.   -21.31882
  41600   16.64    -21.44092   0.0351  617.  616.   -21.32006
  41800   16.72    -21.44050   0.0330  617.  578.   -21.32244
  42000   16.80    -21.44011   0.0306  617.  536.   -21.32589
  42200   16.88    -21.43971   0.0320  616.  561.   -21.32903
  42400   16.96    -21.43933   0.0272  616.  478.   -21.32911
  42600   17.04    -21.43892   0.0336  616.  590.   -21.29196
  42800   17.12    -21.43839   0.0350  616.  615.   -21.28786
  43000   17.20    -21.43788   0.0418  616.  734.   -21.29265
  43200   17.28    -21.43738   0.0427  616.  750.   -21.29601
  43400   17.36    -21.43695   0.0381  617.  669.   -21.29877
  43600   17.44    -21.43647   0.0297  617.  521.   -21.30175
  43800   17.52    -21.43601   0.0384  616.  674.   -21.30451
  44000   17.60    -21.43560   0.0307  617.  539.   -21.30859
  44200   17.68    -21.43520   0.0376  617.  659.   -21.31217
  44400   17.76    -21.43480   0.0360  617.  631.   -21.31440
  44600   17.84    -21.43443   0.0409  617.  717.   -21.31711
  44800   17.92    -21.43408   0.0386  617.  677.   -21.32138
  45000   18.00    -21.43380   0.0435  618.  763.   -21.32494
block <Epot> / <T> :     -21.34657  629.     drift:  0.20D-01   Tbath : 300.
  45200   18.08    -21.43341   0.0453  619.  794.   -21.28467
  45400   18.16    -21.43292   0.0297  619.  521.   -21.28768
  45600   18.24    -21.43244   0.0453  620.  795.   -21.29050
  45800   18.32    -21.43200   0.0413  620.  725.   -21.29442
  46000   18.40    -21.43157   0.0360  620.  632.   -21.29708
  46200   18.48    -21.43115   0.0414  620.  726.   -21.30066
  46400   18.56    -21.43074   0.0314  620.  551.   -21.30283
  46600   18.64    -21.43034   0.0312  620.  548.   -21.30480
  46800   18.72    -21.42994   0.0371  619.  651.   -21.30730
  47000   18.80    -21.42955   0.0319  619.  559.   -21.30908
  47200   18.88    -21.42916   0.0267  618.  468.   -21.31107
  47400   18.96    -21.42878   0.0207  618.  362.   -21.31362
  47600   19.04    -21.42837   0.0244  617.  427.   -21.27556
  47800   19.12    -21.42787   0.0455  617.  798.   -21.27094
  48000   19.20    -21.42738   0.0364  618.  638.   -21.27368
  48200   19.28    -21.42692   0.0337  618.  590.   -21.27714
  48400   19.36    -21.42644   0.0245  618.  430.   -21.28047
  48600   19.44    -21.42596   0.0366  617.  643.   -21.28190
  48800   19.52    -21.42551   0.0470  617.  825.   -21.28321
  49000   19.60    -21.42509   0.0357  617.  626.   -21.28901
  49200   19.68    -21.42466   0.0205  617.  359.   -21.29092
  49400   19.76    -21.42423   0.0210  616.  369.   -21.29185
  49600   19.84    -21.42383   0.0378  616.  663.   -21.29367
  49800   19.92    -21.42343   0.0238  616.  418.   -21.29570
  50000   20.00    -21.42302   0.0271  615.  476.   -21.29669
block <Epot> / <T> :     -21.32591  584.     drift:  0.23D-01   Tbath : 300.
  50200   20.08    -21.42251   0.0247  615.  433.   -21.25222
  50400   20.16    -21.42200   0.0467  615.  818.   -21.25492
  50600   20.24    -21.42151   0.0499  615.  876.   -21.25916
  50800   20.32    -21.42104   0.0397  616.  696.   -21.26338
  51000   20.40    -21.42060   0.0476  616.  836.   -21.26664
  51200   20.48    -21.42020   0.0485  617.  852.   -21.27215
  51400   20.56    -21.41978   0.0356  618.  625.   -21.27445
  51600   20.64    -21.41937   0.0503  618.  882.   -21.27752
  51800   20.72    -21.41900   0.0283  618.  497.   -21.28226
  52000   20.80    -21.41863   0.0301  618.  528.   -21.28631
  52200   20.88    -21.41828   0.0415  619.  727.   -21.29029
  52400   20.96    -21.41791   0.0244  618.  428.   -21.29241
  52600   21.04    -21.41751   0.0256  618.  449.   -21.25434
  52800   21.12    -21.41701   0.0454  618.  797.   -21.24918
  53000   21.20    -21.41651   0.0285  618.  501.   -21.25257
  53200   21.28    -21.41603   0.0482  618.  845.   -21.25530
  53400   21.36    -21.41558   0.0430  618.  754.   -21.25994
  53600   21.44    -21.41518   0.0439  619.  771.   -21.26396
  53800   21.52    -21.41476   0.0403  619.  708.   -21.26772
  54000   21.60    -21.41436   0.0403  619.  707.   -21.27137
  54200   21.68    -21.41398   0.0497  619.  871.   -21.27355
  54400   21.76    -21.41360   0.0364  619.  639.   -21.27717
  54600   21.84    -21.41324   0.0318  619.  558.   -21.28097
  54800   21.92    -21.41288   0.0318  619.  557.   -21.28158
  55000   22.00    -21.41252   0.0333  619.  584.   -21.28459
block <Epot> / <T> :     -21.30747  656.     drift:  0.20D-01   Tbath : 300.
  55200   22.08    -21.41207   0.0476  619.  835.   -21.24172
  55400   22.16    -21.41162   0.0474  619.  831.   -21.24603
  55600   22.24    -21.41119   0.0348  620.  610.   -21.25021
  55800   22.32    -21.41076   0.0426  620.  747.   -21.25185
  56000   22.40    -21.41034   0.0347  620.  609.   -21.25703
  56200   22.48    -21.40994   0.0394  621.  691.   -21.25971
  56400   22.56    -21.40952   0.0296  620.  520.   -21.26230
  56600   22.64    -21.40912   0.0369  620.  648.   -21.26443
  56800   22.72    -21.40873   0.0389  620.  682.   -21.26608
  57000   22.80    -21.40836   0.0312  620.  548.   -21.27155
  57200   22.88    -21.40798   0.0222  619.  390.   -21.27137
  57400   22.96    -21.40761   0.0337  619.  591.   -21.27394
  57600   23.04    -21.40723   0.0270  619.  473.   -21.23790
  57800   23.12    -21.40675   0.0350  619.  614.   -21.23425
  58000   23.20    -21.40626   0.0209  618.  367.   -21.23651
  58200   23.28    -21.40579   0.0325  618.  571.   -21.23812
  58400   23.36    -21.40532   0.0260  618.  456.   -21.24156
  58600   23.44    -21.40488   0.0373  618.  654.   -21.24359
  58800   23.52    -21.40444   0.0291  617.  511.   -21.24572
  59000   23.60    -21.40400   0.0208  617.  365.   -21.24802
  59200   23.68    -21.40356   0.0191  616.  336.   -21.24819
  59400   23.76    -21.40314   0.0324  616.  568.   -21.25010
  59600   23.84    -21.40273   0.0258  616.  452.   -21.25258
  59800   23.92    -21.40231   0.0243  615.  426.   -21.25399
  60000   24.00    -21.40190   0.0308  614.  540.   -21.25651
block <Epot> / <T> :     -21.28504  569.     drift:  0.20D-01   Tbath : 300.
  60200   24.08    -21.40141   0.0446  614.  783.   -21.21284
  60400   24.16    -21.40091   0.0447  614.  785.   -21.21441
  60600   24.24    -21.40044   0.0302  615.  530.   -21.21858
  60800   24.32    -21.39994   0.0427  614.  750.   -21.22081
  61000   24.40    -21.39946   0.0329  614.  577.   -21.22369
  61200   24.48    -21.39901   0.0335  614.  588.   -21.22614
  61400   24.56    -21.39856   0.0314  614.  550.   -21.22900
  61600   24.64    -21.39813   0.0326  614.  572.   -21.23212
  61800   24.72    -21.39767   0.0293  613.  514.   -21.23362
  62000   24.80    -21.39723   0.0354  613.  621.   -21.23422
  62200   24.88    -21.39680   0.0217  613.  381.   -21.23620
  62400   24.96    -21.39638   0.0319  612.  560.   -21.23841
  62600   25.04    -21.39597   0.0518  612.  908.   -21.20331
  62800   25.12    -21.39554   0.0694  614. 1218.   -21.20336
  63000   25.20    -21.39509   0.0439  614.  771.   -21.20846
  63200   25.28    -21.39466   0.0395  615.  693.   -21.21326
  63400   25.36    -21.39421   0.0429  615.  753.   -21.21650
  63600   25.44    -21.39377   0.0284  615.  498.   -21.21945
  63800   25.52    -21.39331   0.0303  615.  532.   -21.22138
  64000   25.60    -21.39291   0.0483  615.  847.   -21.22547
  64200   25.68    -21.39252   0.0285  615.  500.   -21.22749
  64400   25.76    -21.39213   0.0328  615.  575.   -21.23274
  64600   25.84    -21.39175   0.0355  616.  622.   -21.23491
  64800   25.92    -21.39139   0.0486  616.  853.   -21.23697
  65000   26.00    -21.39104   0.0359  616.  629.   -21.24238
block <Epot> / <T> :     -21.26076  633.     drift:  0.22D-01   Tbath : 300.
  65200   26.08    -21.39066   0.1136  617. 1993.   -21.20279
  65400   26.16    -21.39075   0.2331  626. 4089.   -21.22618
  65600   26.24    -21.39095   0.1676  635. 2940.   -21.25987
  65800   26.32    -21.39116   0.1959  643. 3437.   -21.28720
  66000   26.40    -21.39133   0.1605  649. 2815.   -21.32162
  66200   26.48    -21.39161   0.1521  655. 2669.   -21.33547
  66400   26.56    -21.39191   0.1687  661. 2959.   -21.35178
  66600   26.64    -21.39219   0.1048  665. 1838.   -21.37115
  66800   26.72    -21.39251   0.1183  669. 2076.   -21.39281
  67000   26.80    -21.39280   0.1018  672. 1786.   -21.40332
  67200   26.88    -21.39316   0.0721  675. 1265.   -21.41917
  67400   26.96    -21.39353   0.0622  678. 1092.   -21.42920
  67600   27.04    -21.39385   0.0809  680. 1419.   -21.40780
  67800   27.12    -21.39413   0.0850  682. 1492.   -21.40984
  68000   27.20    -21.39441   0.0729  684. 1279.   -21.42199
  68200   27.28    -21.39474   0.0741  686. 1300.   -21.43268
  68400   27.36    -21.39508   0.0703  688. 1233.   -21.44182
  68600   27.44    -21.39543   0.0834  690. 1463.   -21.44949
  68800   27.52    -21.39579   0.0687  691. 1206.   -21.45833
  69000   27.60    -21.39615   0.0816  692. 1432.   -21.46524
  69200   27.68    -21.39654   0.0569  693.  998.   -21.47007
  69400   27.76    -21.39692   0.0558  694.  978.   -21.47907
  69600   27.84    -21.39732   0.0569  695.  999.   -21.48277
  69800   27.92    -21.39772   0.0564  695.  989.   -21.48936
  70000   28.00    -21.39812   0.0385  696.  676.   -21.49758
block <Epot> / <T> :     -21.49078 1733.     drift: -0.53D-01   Tbath : 300.
  70200   28.08    -21.39846   0.0722  696. 1267.   -21.45322
  70400   28.16    -21.39881   0.0561  697.  985.   -21.46315
  70600   28.24    -21.39920   0.0639  699. 1122.   -21.47182
  70800   28.32    -21.39959   0.0664  700. 1164.   -21.47884
  71000   28.40    -21.40000   0.0620  701. 1088.   -21.48441
  71200   28.48    -21.40041   0.0545  702.  957.   -21.49141
  71400   28.56    -21.40082   0.0573  702. 1005.   -21.49837
  71600   28.64    -21.40125   0.0412  703.  723.   -21.50403
  71800   28.72    -21.40168   0.0498  703.  874.   -21.50889
  72000   28.80    -21.40212   0.0373  704.  655.   -21.51274
  72200   28.88    -21.40254   0.0338  704.  593.   -21.51823
  72400   28.96    -21.40295   0.0314  703.  552.   -21.52147
  72600   29.04    -21.40336   0.0491  703.  861.   -21.48759
  72800   29.12    -21.40373   0.0549  704.  963.   -21.48581
  73000   29.20    -21.40408   0.0499  704.  875.   -21.49222
  73200   29.28    -21.40446   0.0501  704.  879.   -21.49692
  73400   29.36    -21.40484   0.0343  705.  601.   -21.50228
  73600   29.44    -21.40520   0.0327  704.  574.   -21.50442
  73800   29.52    -21.40556   0.0283  704.  497.   -21.50545
  74000   29.60    -21.40591   0.0347  703.  608.   -21.50863
  74200   29.68    -21.40628   0.0429  703.  753.   -21.51136
  74400   29.76    -21.40668   0.0365  703.  641.   -21.51590
  74600   29.84    -21.40707   0.0296  703.  520.   -21.51957
  74800   29.92    -21.40744   0.0196  702.  344.   -21.51969
  75000   30.00    -21.40780   0.0274  701.  481.   -21.51951
block <Epot> / <T> :     -21.54330  779.     drift: -0.10D+00   Tbath : 300.
  75200   30.08    -21.40810   0.0412  701.  724.   -21.47953
  75400   30.16    -21.40844   0.0676  702. 1186.   -21.48383
  75600   30.24    -21.40879   0.0357  702.  627.   -21.49036
  75800   30.32    -21.40911   0.0519  702.  911.   -21.49270
  76000   30.40    -21.40947   0.0445  702.  781.   -21.49811
  76200   30.48    -21.40980   0.0321  702.  563.   -21.50166
  76400   30.56    -21.41014   0.0236  702.  414.   -21.50548
  76600   30.64    -21.41049   0.0394  702.  691.   -21.50977
  76800   30.72    -21.41086   0.0326  702.  572.   -21.51289
  77000   30.80    -21.41121   0.0257  702.  452.   -21.51583
  77200   30.88    -21.41155   0.0334  701.  586.   -21.51769
  77400   30.96    -21.41191   0.0331  701.  581.   -21.52009
  77600   31.04    -21.41223   0.0229  700.  401.   -21.48335
  77800   31.12    -21.41249   0.0327  700.  573.   -21.47735
  78000   31.20    -21.41278   0.0396  700.  695.   -21.48146
  78200   31.28    -21.41306   0.0425  700.  745.   -21.48609
  78400   31.36    -21.41332   0.0372  699.  653.   -21.48784
  78600   31.44    -21.41359   0.0333  699.  585.   -21.48899
  78800   31.52    -21.41387   0.0356  699.  625.   -21.49309
  79000   31.60    -21.41416   0.0218  699.  383.   -21.49657
  79200   31.68    -21.41446   0.0465  698.  816.   -21.49921
  79400   31.76    -21.41477   0.0397  698.  696.   -21.50228
  79600   31.84    -21.41507   0.0296  698.  520.   -21.50594
  79800   31.92    -21.41538   0.0368  697.  646.   -21.50763
  80000   32.00    -21.41568   0.0287  697.  504.   -21.50901
block <Epot> / <T> :     -21.53389  631.     drift: -0.87D-01   Tbath : 300.
  80200   32.08    -21.41593   0.0376  697.  660.   -21.46620
  80400   32.16    -21.41618   0.0412  697.  722.   -21.47145
  80600   32.24    -21.41644   0.0617  697. 1083.   -21.47645
  80800   32.32    -21.41672   0.0454  698.  796.   -21.48365
  81000   32.40    -21.41698   0.0474  698.  832.   -21.48540
  81200   32.48    -21.41726   0.0299  698.  524.   -21.49029
  81400   32.56    -21.41753   0.0436  697.  765.   -21.49224
  81600   32.64    -21.41783   0.0351  698.  617.   -21.49845
  81800   32.72    -21.41812   0.0248  698.  435.   -21.50158
  82000   32.80    -21.41839   0.0288  697.  506.   -21.50468
  82200   32.88    -21.41866   0.0225  696.  394.   -21.50364
  82400   32.96    -21.41892   0.0230  696.  403.   -21.50524
  82600   33.04    -21.41917   0.0292  695.  512.   -21.47034
  82800   33.12    -21.41939   0.0502  695.  880.   -21.46467
  83000   33.20    -21.41964   0.0607  696. 1064.   -21.47160
  83200   33.28    -21.41991   0.0404  697.  709.   -21.47857
  83400   33.36    -21.42014   0.0247  696.  433.   -21.48268
  83600   33.44    -21.42038   0.0319  696.  559.   -21.48519
  83800   33.52    -21.42061   0.0346  696.  606.   -21.48692
  84000   33.60    -21.42086   0.0421  696.  738.   -21.49134
  84200   33.68    -21.42113   0.0297  696.  521.   -21.49426
  84400   33.76    -21.42136   0.0303  695.  532.   -21.49631
  84600   33.84    -21.42161   0.0388  695.  680.   -21.49872
  84800   33.92    -21.42190   0.0403  695.  707.   -21.50203
  85000   34.00    -21.42215   0.0176  694.  309.   -21.50356
block <Epot> / <T> :     -21.52565  653.     drift: -0.95D-02   Tbath : 300.
  85200   34.08    -21.42234   0.0454  694.  796.   -21.45958
  85400   34.16    -21.42259   0.0659  695. 1155.   -21.46689
  85600   34.24    -21.42283   0.0401  695.  703.   -21.47355
  85800   34.32    -21.42306   0.0347  696.  609.   -21.47876
  86000   34.40    -21.42326   0.0222  695.  389.   -21.48022
  86200   34.48    -21.42348   0.0464  695.  814.   -21.48440
  86400   34.56    -21.42373   0.0452  695.  793.   -21.48772
  86600   34.64    -21.42398   0.0306  695.  537.   -21.49291
  86800   34.72    -21.42420   0.0252  695.  441.   -21.49520
  87000   34.80    -21.42443   0.0305  695.  535.   -21.49726
  87200   34.88    -21.42467   0.0347  694.  608.   -21.49953
  87400   34.96    -21.42492   0.0316  694.  554.   -21.50267
  87600   35.04    -21.42516   0.0425  694.  745.   -21.47076
  87800   35.12    -21.42536   0.0560  694.  983.   -21.46729
  88000   35.20    -21.42556   0.0310  694.  544.   -21.47214
  88200   35.28    -21.42576   0.0473  694.  829.   -21.47501
  88400   35.36    -21.42595   0.0343  694.  602.   -21.47723
  88600   35.44    -21.42613   0.0347  693.  610.   -21.47800
  88800   35.52    -21.42631   0.0243  693.  426.   -21.48011
  89000   35.60    -21.42650   0.0403  693.  707.   -21.48360
  89200   35.68    -21.42673   0.0405  693.  710.   -21.48659
  89400   35.76    -21.42695   0.0371  693.  650.   -21.49058
  89600   35.84    -21.42716   0.0229  692.  402.   -21.49127
  89800   35.92    -21.42736   0.0234  692.  410.   -21.49391
  90000   36.00    -21.42756   0.0250  691.  439.   -21.49562
block <Epot> / <T> :     -21.51949  633.     drift:  0.80D-02   Tbath : 300.
  90200   36.08    -21.42772   0.0433  691.  760.   -21.45151
  90400   36.16    -21.42788   0.0547  691.  960.   -21.45654
  90600   36.24    -21.42805   0.0383  691.  671.   -21.46228
  90800   36.32    -21.42821   0.0340  691.  596.   -21.46347
  91000   36.40    -21.42836   0.0284  691.  499.   -21.46684
  91200   36.48    -21.42852   0.0442  691.  776.   -21.47070
  91400   36.56    -21.42871   0.0482  691.  845.   -21.47360
  91600   36.64    -21.42889   0.0345  691.  605.   -21.47820
  91800   36.72    -21.42906   0.0381  690.  669.   -21.47816
  92000   36.80    -21.42924   0.0354  690.  621.   -21.48125
  92200   36.88    -21.42943   0.0352  690.  617.   -21.48409
  92400   36.96    -21.42961   0.0222  689.  389.   -21.48589
  92600   37.04    -21.42977   0.0283  689.  497.   -21.45270
  92800   37.12    -21.42991   0.0567  689.  995.   -21.44626
  93000   37.20    -21.43006   0.0515  689.  904.   -21.45173
  93200   37.28    -21.43021   0.0495  690.  868.   -21.45779
  93400   37.36    -21.43036   0.0369  690.  647.   -21.46093
  93600   37.44    -21.43050   0.0228  689.  401.   -21.46394
  93800   37.52    -21.43062   0.0305  689.  535.   -21.46544
  94000   37.60    -21.43075   0.0331  688.  580.   -21.46693
  94200   37.68    -21.43089   0.0360  688.  631.   -21.46973
  94400   37.76    -21.43103   0.0208  687.  365.   -21.47068
  94600   37.84    -21.43118   0.0225  687.  395.   -21.47242
  94800   37.92    -21.43134   0.0342  687.  599.   -21.47565
  95000   38.00    -21.43150   0.0257  686.  452.   -21.47776
block <Epot> / <T> :     -21.50235  607.     drift:  0.10D-01   Tbath : 300.
  95200   38.08    -21.43161   0.0423  686.  743.   -21.43487
  95400   38.16    -21.43169   0.0267  686.  468.   -21.43708
  95600   38.24    -21.43176   0.0261  686.  459.   -21.43882
  95800   38.32    -21.43184   0.0366  685.  642.   -21.44088
  96000   38.40    -21.43195   0.0436  685.  766.   -21.44505
  96200   38.48    -21.43207   0.0326  685.  571.   -21.45039
  96400   38.56    -21.43218   0.0288  685.  504.   -21.45267
  96600   38.64    -21.43227   0.0228  685.  401.   -21.45506
  96800   38.72    -21.43238   0.0247  684.  434.   -21.45818
  97000   38.80    -21.43249   0.0365  684.  640.   -21.45847
  97200   38.88    -21.43261   0.0341  684.  599.   -21.46173
  97400   38.96    -21.43273   0.0269  683.  473.   -21.46391
  97600   39.04    -21.43282   0.0278  683.  487.   -21.42953
  97800   39.12    -21.43288   0.0668  683. 1173.   -21.42138
  98000   39.20    -21.43299   0.0459  684.  805.   -21.42861
  98200   39.28    -21.43305   0.0268  683.  471.   -21.43057
  98400   39.36    -21.43310   0.0324  683.  568.   -21.43193
  98600   39.44    -21.43318   0.0404  683.  709.   -21.43682
  98800   39.52    -21.43325   0.0274  683.  481.   -21.43919
  99000   39.60    -21.43334   0.0374  683.  656.   -21.44175
  99200   39.68    -21.43342   0.0351  682.  616.   -21.44449
  99400   39.76    -21.43351   0.0378  682.  662.   -21.44752
  99600   39.84    -21.43360   0.0297  682.  522.   -21.44843
  99800   39.92    -21.43369   0.0298  681.  524.   -21.45282
 100000   40.00    -21.43380   0.0237  681.  416.   -21.45355
block <Epot> / <T> :     -21.47738  580.     drift:  0.16D-01   Tbath : 300.
 100200   40.08    -21.43386   0.0317  681.  556.   -21.41333
 100400   40.16    -21.43390   0.0480  681.  842.   -21.41890
 100600   40.24    -21.43397   0.0353  681.  619.   -21.42308
 100800   40.32    -21.43401   0.0335  681.  588.   -21.42636
 101000   40.40    -21.43408   0.0377  681.  661.   -21.43087
 101200   40.48    -21.43418   0.0498  681.  873.   -21.43638
 101400   40.56    -21.43427   0.0250  682.  439.   -21.44126
 101600   40.64    -21.43434   0.0331  681.  580.   -21.44294
 101800   40.72    -21.43445   0.0480  682.  842.   -21.44706
 102000   40.80    -21.43457   0.0400  682.  702.   -21.45185
 102200   40.88    -21.43469   0.0315  682.  552.   -21.45625
 102400   40.96    -21.43479   0.0192  681.  337.   -21.45757
 102600   41.04    -21.43487   0.0370  681.  650.   -21.42577
 102800   41.12    -21.43493   0.0624  681. 1094.   -21.41821
 103000   41.20    -21.43501   0.0542  682.  951.   -21.42507
 103200   41.28    -21.43510   0.0468  682.  822.   -21.43095
 103400   41.36    -21.43516   0.0334  682.  585.   -21.43375
 103600   41.44    -21.43519   0.0217  681.  380.   -21.43343
 103800   41.52    -21.43524   0.0264  681.  463.   -21.43565
 104000   41.60    -21.43531   0.0398  681.  698.   -21.43841
 104200   41.68    -21.43537   0.0245  680.  430.   -21.44220
 104400   41.76    -21.43544   0.0271  680.  476.   -21.44407
 104600   41.84    -21.43553   0.0471  680.  826.   -21.44758
 104800   41.92    -21.43562   0.0291  680.  511.   -21.44935
 105000   42.00    -21.43570   0.0359  680.  631.   -21.45228
block <Epot> / <T> :     -21.47382  647.     drift:  0.16D-01   Tbath : 300.
 105200   42.08    -21.43574   0.0430  679.  754.   -21.40923
 105400   42.16    -21.43577   0.0354  679.  621.   -21.41238
 105600   42.24    -21.43579   0.0413  679.  724.   -21.41476
 105800   42.32    -21.43583   0.0348  679.  611.   -21.41833
 106000   42.40    -21.43585   0.0382  679.  671.   -21.41988
 106200   42.48    -21.43590   0.0341  679.  599.   -21.42413
 106400   42.56    -21.43597   0.0439  679.  771.   -21.42798
 106600   42.64    -21.43603   0.0307  679.  539.   -21.43244
 106800   42.72    -21.43608   0.0213  679.  373.   -21.43289
 107000   42.80    -21.43612   0.0320  678.  561.   -21.43578
 107200   42.88    -21.43619   0.0268  678.  471.   -21.44094
 107400   42.96    -21.43625   0.0281  678.  493.   -21.44066
 107600   43.04    -21.43632   0.0490  678.  860.   -21.41363
 107800   43.12    -21.43633   0.0501  678.  879.   -21.40472
 108000   43.20    -21.43638   0.0426  678.  747.   -21.41005
 108200   43.28    -21.43643   0.0641  679. 1124.   -21.41585
 108400   43.36    -21.43648   0.0382  679.  671.   -21.42088
 108600   43.44    -21.43653   0.0481  679.  843.   -21.42507
 108800   43.52    -21.43660   0.0286  679.  502.   -21.42820
 109000   43.60    -21.43666   0.0462  679.  810.   -21.43362
 109200   43.68    -21.43673   0.0382  679.  670.   -21.43742
 109400   43.76    -21.43681   0.0374  679.  657.   -21.44091
 109600   43.84    -21.43687   0.0347  679.  608.   -21.44409
 109800   43.92    -21.43694   0.0362  679.  636.   -21.44614
 110000   44.00    -21.43701   0.0310  678.  543.   -21.44818
block <Epot> / <T> :     -21.46444  649.     drift:  0.12D-01   Tbath : 300.
 110200   44.08    -21.43704   0.0333  678.  585.   -21.40485
 110400   44.16    -21.43705   0.0553  678.  970.   -21.40940
 110600   44.24    -21.43709   0.0394  678.  692.   -21.41214
 110800   44.32    -21.43711   0.0293  678.  514.   -21.41562
 111000   44.40    -21.43712   0.0268  678.  469.   -21.41808
 111200   44.48    -21.43715   0.0505  677.  886.   -21.41989
 111400   44.56    -21.43719   0.0460  677.  807.   -21.42366
 111600   44.64    -21.43723   0.0258  677.  453.   -21.42614
 111800   44.72    -21.43728   0.0345  677.  605.   -21.43098
 112000   44.80    -21.43732   0.0241  677.  423.   -21.43249
 112200   44.88    -21.43736   0.0267  676.  468.   -21.43415
 112400   44.96    -21.43740   0.0275  676.  482.   -21.43674
 112600   45.04    -21.43745   0.0280  676.  492.   -21.40631
 112800   45.12    -21.43745   0.0462  676.  810.   -21.39744
 113000   45.20    -21.43747   0.0478  676.  838.   -21.40266
 113200   45.28    -21.43749   0.0436  676.  765.   -21.40735
 113400   45.36    -21.43751   0.0275  676.  482.   -21.40989
 113600   45.44    -21.43754   0.0494  676.  866.   -21.41471
 113800   45.52    -21.43759   0.0354  677.  621.   -21.42011
 114000   45.60    -21.43761   0.0233  676.  409.   -21.42274
 114200   45.68    -21.43764   0.0205  676.  360.   -21.42669
 114400   45.76    -21.43768   0.0267  676.  468.   -21.42907
 114600   45.84    -21.43772   0.0348  676.  610.   -21.43320
 114800   45.92    -21.43778   0.0309  676.  543.   -21.43673
 115000   46.00    -21.43783   0.0261  675.  458.   -21.43805
block <Epot> / <T> :     -21.45569  612.     drift:  0.74D-02   Tbath : 300.
 115200   46.08    -21.43783   0.0487  675.  855.   -21.39379
 115400   46.16    -21.43786   0.0625  676. 1097.   -21.39983
 115600   46.24    -21.43789   0.0515  676.  904.   -21.40502
 115800   46.32    -21.43793   0.0460  676.  806.   -21.41211
 116000   46.40    -21.43798   0.0427  677.  750.   -21.41879
 116200   46.48    -21.43800   0.0271  677.  475.   -21.42077
 116400   46.56    -21.43802   0.0373  676.  655.   -21.42273
 116600   46.64    -21.43807   0.0365  676.  640.   -21.42585
 116800   46.72    -21.43810   0.0247  676.  434.   -21.42830
 117000   46.80    -21.43813   0.0377  676.  661.   -21.43047
 117200   46.88    -21.43817   0.0254  675.  445.   -21.43387
 117400   46.96    -21.43821   0.0243  675.  427.   -21.43591
 117600   47.04    -21.43825   0.0356  675.  624.   -21.40735
 117800   47.12    -21.43826   0.0502  675.  880.   -21.39863
 118000   47.20    -21.43827   0.0387  675.  680.   -21.40211
 118200   47.28    -21.43826   0.0332  675.  582.   -21.40552
 118400   47.36    -21.43827   0.0472  675.  827.   -21.40992
 118600   47.44    -21.43830   0.0461  675.  808.   -21.41332
 118800   47.52    -21.43833   0.0290  675.  508.   -21.41751
 119000   47.60    -21.43836   0.0525  675.  921.   -21.42120
 119200   47.68    -21.43840   0.0346  675.  606.   -21.42554
 119400   47.76    -21.43844   0.0240  675.  422.   -21.42802
 119600   47.84    -21.43848   0.0344  675.  604.   -21.43238
 119800   47.92    -21.43852   0.0335  674.  587.   -21.43329
 120000   48.00    -21.43856   0.0246  674.  432.   -21.43687
block <Epot> / <T> :     -21.45544  647.     drift:  0.64D-02   Tbath : 300.
 120200   48.08    -21.43856   0.0288  674.  505.   -21.39259
 120400   48.16    -21.43855   0.0576  674. 1011.   -21.39680
 120600   48.24    -21.43857   0.0383  674.  672.   -21.40161
 120800   48.32    -21.43857   0.0287  674.  503.   -21.40353
 121000   48.40    -21.43857   0.0384  674.  674.   -21.40596
 121200   48.48    -21.43860   0.0371  674.  651.   -21.41122
 121400   48.56    -21.43860   0.0326  674.  572.   -21.41611
 121600   48.64    -21.43862   0.0316  674.  555.   -21.41784
 121800   48.72    -21.43864   0.0363  674.  636.   -21.42075
 122000   48.80    -21.43865   0.0183  673.  321.   -21.42193
 122200   48.88    -21.43868   0.0401  673.  703.   -21.42384
 122400   48.96    -21.43870   0.0277  673.  485.   -21.42654
 122600   49.04    -21.43872   0.0247  672.  434.   -21.39740
 122800   49.12    -21.43870   0.0417  672.  732.   -21.38645
 123000   49.20    -21.43867   0.0151  672.  264.   -21.38857
 123200   49.28    -21.43863   0.0412  672.  723.   -21.39031
 123400   49.36    -21.43862   0.0265  672.  465.   -21.39430
 123600   49.44    -21.43859   0.0264  672.  464.   -21.39600
 123800   49.52    -21.43857   0.0355  671.  623.   -21.39758
 124000   49.60    -21.43857   0.0307  671.  539.   -21.40174
 124200   49.68    -21.43855   0.0194  671.  340.   -21.40354
 124400   49.76    -21.43853   0.0347  671.  609.   -21.40459
 124600   49.84    -21.43853   0.0240  670.  422.   -21.40744
 124800   49.92    -21.43852   0.0254  670.  446.   -21.40819
 average properties 
 Epot               :  -21.4385127520868     
 Epot (accurate SCC):  -21.4386786648587     
 Ekin               :  3.816575556705001E-002
 Etot               :  -21.4003469965198     
 T                  :   669.544653911210     
 thermostating problem
 normal exit of md()

------------------------------------------------------------------------
 * finished run on 2021/03/15 at 00:22:01.075     
------------------------------------------------------------------------
 total:
 * wall-time:     0 d,  0 h, 24 min, 51.999 sec
 *  cpu-time:     0 d,  0 h, 24 min, 30.200 sec
 * ratio c/w:     0.985 speedup
 SCF:
 * wall-time:     0 d,  0 h,  0 min,  0.798 sec
 *  cpu-time:     0 d,  0 h,  0 min,  0.028 sec
 * ratio c/w:     0.035 speedup
 MD:
 * wall-time:     0 d,  0 h, 24 min, 49.823 sec
 *  cpu-time:     0 d,  0 h, 24 min, 30.140 sec
 * ratio c/w:     0.987 speedup

