 Entering Gaussian System, Link 0=/software/kemi/g16/avx2/g16/g16
 Initial command:
 /software/kemi/g16/avx2/g16/l1.exe "/scratch/23802732/Gau-23821.inp" -scrdir="/scratch/23802732/"
 Entering Link 1 = /software/kemi/g16/avx2/g16/l1.exe PID=     23822.
  
 Copyright (c) 1988,1990,1992,1993,1995,1998,2003,2009,2016,
            Gaussian, Inc.  All Rights Reserved.
  
 This is part of the Gaussian(R) 16 program.  It is based on
 the Gaussian(R) 09 system (copyright 2009, Gaussian, Inc.),
 the Gaussian(R) 03 system (copyright 2003, Gaussian, Inc.),
 the Gaussian(R) 98 system (copyright 1998, Gaussian, Inc.),
 the Gaussian(R) 94 system (copyright 1995, Gaussian, Inc.),
 the Gaussian 92(TM) system (copyright 1992, Gaussian, Inc.),
 the Gaussian 90(TM) system (copyright 1990, Gaussian, Inc.),
 the Gaussian 88(TM) system (copyright 1988, Gaussian, Inc.),
 the Gaussian 86(TM) system (copyright 1986, Carnegie Mellon
 University), and the Gaussian 82(TM) system (copyright 1983,
 Carnegie Mellon University). Gaussian is a federally registered
 trademark of Gaussian, Inc.
  
 This software contains proprietary and confidential information,
 including trade secrets, belonging to Gaussian, Inc.
  
 This software is provided under written license and may be
 used, copied, transmitted, or stored only in accord with that
 written license.
  
 The following legend is applicable only to US Government
 contracts under FAR:
  
                    RESTRICTED RIGHTS LEGEND
  
 Use, reproduction and disclosure by the US Government is
 subject to restrictions as set forth in subparagraphs (a)
 and (c) of the Commercial Computer Software - Restricted
 Rights clause in FAR 52.227-19.
  
 Gaussian, Inc.
 340 Quinnipiac St., Bldg. 40, Wallingford CT 06492
  
  
 ---------------------------------------------------------------
 Warning -- This program may not be used in any manner that
 competes with the business of Gaussian, Inc. or will provide
 assistance to any competitor of Gaussian, Inc.  The licensee
 of this program is prohibited from giving any competitor of
 Gaussian, Inc. access to this program.  By using this program,
 the user acknowledges that Gaussian, Inc. is engaged in the
 business of creating and licensing software in the field of
 computational chemistry and represents and warrants to the
 licensee that it is not a competitor of Gaussian, Inc. and that
 it will not use this program in any manner prohibited above.
 ---------------------------------------------------------------
  

 Cite this work as:
 Gaussian 16, Revision A.03,
 M. J. Frisch, G. W. Trucks, H. B. Schlegel, G. E. Scuseria, 
 M. A. Robb, J. R. Cheeseman, G. Scalmani, V. Barone, 
 G. A. Petersson, H. Nakatsuji, X. Li, M. Caricato, A. V. Marenich, 
 J. Bloino, B. G. Janesko, R. Gomperts, B. Mennucci, H. P. Hratchian, 
 J. V. Ortiz, A. F. Izmaylov, J. L. Sonnenberg, D. Williams-Young, 
 F. Ding, F. Lipparini, F. Egidi, J. Goings, B. Peng, A. Petrone, 
 T. Henderson, D. Ranasinghe, V. G. Zakrzewski, J. Gao, N. Rega, 
 G. Zheng, W. Liang, M. Hada, M. Ehara, K. Toyota, R. Fukuda, 
 J. Hasegawa, M. Ishida, T. Nakajima, Y. Honda, O. Kitao, H. Nakai, 
 T. Vreven, K. Throssell, J. A. Montgomery, Jr., J. E. Peralta, 
 F. Ogliaro, M. J. Bearpark, J. J. Heyd, E. N. Brothers, K. N. Kudin, 
 V. N. Staroverov, T. A. Keith, R. Kobayashi, J. Normand, 
 K. Raghavachari, A. P. Rendell, J. C. Burant, S. S. Iyengar, 
 J. Tomasi, M. Cossi, J. M. Millam, M. Klene, C. Adamo, R. Cammi, 
 J. W. Ochterski, R. L. Martin, K. Morokuma, O. Farkas, 
 J. B. Foresman, and D. J. Fox, Gaussian, Inc., Wallingford CT, 2016.
 
 ******************************************
 Gaussian 16:  ES64L-G16RevA.03 25-Dec-2016
                11-Jun-2021 
 ******************************************
 %nprocshared=1
 Will use up to    1 processors via shared memory.
 %mem=2GB
 ----------------------------------------------------------------------
 #opt=(calcall, ts, noeigen, nomicro, maxstep=15) external="/groups/kem
 i/mharris/github/xtb_ts_test/xtb_external.py"
 ----------------------------------------------------------------------
 1/5=1,8=15,10=4,11=1,18=20,26=1,38=1/1,3;
 2/9=110,12=2,17=6,18=5,40=1/2;
 3/11=9,25=1,30=1,41=9900000,43=2,71=2,140=1/1;
 4/20=17,22=2,24=3,113=1,114=1/2;
 6/7=2,8=2,9=2,10=2,18=1/1;
 7/25=1,44=-1/16;
 1/5=1,8=15,10=4,11=1,18=20,26=1/3(3);
 2/9=110/2;
 7/8=1,9=1,25=1,44=-1/16;
 99//99;
 2/9=110/2;
 3/11=9,25=1,30=1,41=9900000,43=2,71=2,140=1/1;
 4/16=2,20=17,22=2,24=3,113=1,114=1/2;
 7/25=1,44=-1/16;
 1/5=1,8=15,10=4,11=1,18=20,26=1/3(-4);
 2/9=110/2;
 6/7=2,8=2,9=2,10=2,18=1/1;
 7/8=1,9=1,25=1,44=-1/16;
 99//99;
 ---------------
 something title
 ---------------
 Symbolic Z-matrix:
 Charge =  0 Multiplicity = 1
 N                    -1.69996   1.18634   0.00248 
 C                    -0.57539   0.62929  -0.00039 
 N                    -0.42892  -0.80637  -0.00025 
 N                    -1.05913  -1.75125  -0.00301 
 O                     1.37839  -0.861     0.00341 
 N                     1.70207   0.36445  -0.00003 
 C                     0.73557   1.21867  -0.00293 
 H                    -2.51384   0.57601   0.00513 
 H                     0.92715   2.27206  -0.0068 
 

 GradGradGradGradGradGradGradGradGradGradGradGradGradGradGradGradGradGrad
 Berny optimization.
 Initialization pass.
                           ----------------------------
                           !    Initial Parameters    !
                           ! (Angstroms and Degrees)  !
 --------------------------                            --------------------------
 ! Name  Definition              Value          Derivative Info.                !
 --------------------------------------------------------------------------------
 ! R1    R(1,2)                  1.255          calculate D2E/DX2 analytically  !
 ! R2    R(1,8)                  1.0173         calculate D2E/DX2 analytically  !
 ! R3    R(2,3)                  1.4431         calculate D2E/DX2 analytically  !
 ! R4    R(2,7)                  1.4374         calculate D2E/DX2 analytically  !
 ! R5    R(3,4)                  1.1358         calculate D2E/DX2 analytically  !
 ! R6    R(5,6)                  1.2675         calculate D2E/DX2 analytically  !
 ! R7    R(6,7)                  1.2899         calculate D2E/DX2 analytically  !
 ! R8    R(7,9)                  1.0707         calculate D2E/DX2 analytically  !
 ! A1    A(2,1,8)              116.7826         calculate D2E/DX2 analytically  !
 ! A2    A(1,2,3)              122.1765         calculate D2E/DX2 analytically  !
 ! A3    A(1,2,7)              129.4411         calculate D2E/DX2 analytically  !
 ! A4    A(3,2,7)              108.3823         calculate D2E/DX2 analytically  !
 ! A5    A(2,3,4)              140.4722         calculate D2E/DX2 analytically  !
 ! A6    A(5,6,7)              116.6756         calculate D2E/DX2 analytically  !
 ! A7    A(2,7,6)              114.3208         calculate D2E/DX2 analytically  !
 ! A8    A(2,7,9)              124.5155         calculate D2E/DX2 analytically  !
 ! A9    A(6,7,9)              121.1637         calculate D2E/DX2 analytically  !
 ! D1    D(8,1,2,3)              0.012          calculate D2E/DX2 analytically  !
 ! D2    D(8,1,2,7)           -179.9223         calculate D2E/DX2 analytically  !
 ! D3    D(1,2,3,4)              0.3838         calculate D2E/DX2 analytically  !
 ! D4    D(7,2,3,4)           -179.6697         calculate D2E/DX2 analytically  !
 ! D5    D(1,2,7,6)            179.7265         calculate D2E/DX2 analytically  !
 ! D6    D(1,2,7,9)             -0.2681         calculate D2E/DX2 analytically  !
 ! D7    D(3,2,7,6)             -0.2149         calculate D2E/DX2 analytically  !
 ! D8    D(3,2,7,9)            179.7905         calculate D2E/DX2 analytically  !
 ! D9    D(5,6,7,2)              0.06           calculate D2E/DX2 analytically  !
 ! D10   D(5,6,7,9)           -179.9452         calculate D2E/DX2 analytically  !
 --------------------------------------------------------------------------------
 Trust Radius=1.50D-01 FncErr=1.00D-07 GrdErr=1.00D-07 EigMax=2.50D+02 EigMin=1.00D-04
 Number of steps in this run=     37 maximum allowed number of steps=    100.
 Search for a saddle point of order  1.
 GradGradGradGradGradGradGradGradGradGradGradGradGradGradGradGradGradGrad

                          Input orientation:                          
 ---------------------------------------------------------------------
 Center     Atomic      Atomic             Coordinates (Angstroms)
 Number     Number       Type             X           Y           Z
 ---------------------------------------------------------------------
      1          7           0       -1.699960    1.186340    0.002480
      2          6           0       -0.575390    0.629290   -0.000390
      3          7           0       -0.428920   -0.806370   -0.000250
      4          7           0       -1.059130   -1.751250   -0.003010
      5          8           0        1.378390   -0.861000    0.003410
      6          7           0        1.702070    0.364450   -0.000030
      7          6           0        0.735570    1.218670   -0.002930
      8          1           0       -2.513840    0.576010    0.005130
      9          1           0        0.927150    2.272060   -0.006800
 ---------------------------------------------------------------------
                    Distance matrix (angstroms):
                    1          2          3          4          5
     1  N    0.000000
     2  C    1.254978   0.000000
     3  N    2.363566   1.443112   0.000000
     4  N    3.006681   2.429194   1.135769   0.000000
     5  O    3.697004   2.457282   1.808139   2.595013   0.000000
     6  N    3.499903   2.292807   2.431448   3.478566   1.267481
     7  C    2.435751   1.437356   2.335986   3.470068   2.176760
     8  H    1.017305   1.939190   2.501578   2.744519   4.149031
     9  H    2.842636   2.226289   3.363882   4.486908   3.165405
                    6          7          8          9
     6  N    0.000000
     7  C    1.289892   0.000000
     8  H    4.221218   3.312362   0.000000
     9  H    2.059010   1.070677   3.836292   0.000000
 Stoichiometry    C2H2N4O
 Framework group  C1[X(C2H2N4O)]
 Deg. of freedom    21
 Full point group                 C1      NOp   1
 Largest Abelian subgroup         C1      NOp   1
 Largest concise Abelian subgroup C1      NOp   1
                         Standard orientation:                         
 ---------------------------------------------------------------------
 Center     Atomic      Atomic             Coordinates (Angstroms)
 Number     Number       Type             X           Y           Z
 ---------------------------------------------------------------------
      1          7           0       -1.699960   -1.186338   -0.002480
      2          6           0       -0.575389   -0.629289    0.000390
      3          7           0       -0.428918    0.806371    0.000250
      4          7           0       -1.059127    1.751251    0.003010
      5          8           0        1.378392    0.860999   -0.003410
      6          7           0        1.702071   -0.364451    0.000030
      7          6           0        0.735570   -1.218670    0.002930
      8          1           0       -2.513839   -0.576007   -0.005130
      9          1           0        0.927149   -2.272061    0.006800
 ---------------------------------------------------------------------
 Rotational constants (GHZ):           4.4528440           3.4287280           1.9371336
 Standard basis: STO-3G (5D, 7F)
 There are    37 symmetry adapted cartesian basis functions of A   symmetry.
 There are    37 symmetry adapted basis functions of A   symmetry.
    37 basis functions,   111 primitive gaussians,    37 cartesian basis functions
    25 alpha electrons       25 beta electrons
       nuclear repulsion energy       278.5053438456 Hartrees.
 NAtoms=    9 NActive=    9 NUniq=    9 SFac= 1.00D+00 NAtFMM=   60 NAOKFM=F Big=F
 Integral buffers will be    131072 words long.
 Raffenetti 1 integral format.
 Two-electron integral symmetry is turned on.
 External calculation of energy, first and second derivatives.
 Running external command "/groups/kemi/mharris/github/xtb_ts_test/xtb_external.py R"
         input file       "/scratch/23802732/Gau-23822.EIn"
         output file      "/scratch/23802732/Gau-23822.EOu"
         message file     "/scratch/23802732/Gau-23822.EMs"
         fchk file        "/scratch/23802732/Gau-23822.EFC"
         mat. el file     "/scratch/23802732/Gau-23822.EUF"
/groups/kemi/koerstz/opt/xtb/6.1/bin/xtb mol.xyz --chrg 0 --uhf 0 --gfn 2 --hess --grad 
 Recovered energy= -20.8672209020     dipole=     -0.666000000000     -0.626000000000      0.002000000000
 Energy=    -20.8672209     NIter=   0.
 Dipole moment=      -0.666000      -0.626000       0.002000
 ***** Axes restored to original set *****
 -------------------------------------------------------------------
 Center     Atomic                   Forces (Hartrees/Bohr)
 Number     Number              X              Y              Z
 -------------------------------------------------------------------
      1        7           0.000029365    0.000008179   -0.000034546
      2        6          -0.000063500   -0.000025576   -0.000015989
      3        7           0.000011825    0.000042911    0.000008913
      4        7           0.000014564   -0.000014960    0.000053865
      5        8          -0.000022023    0.000005998   -0.000029715
      6        7          -0.000030023    0.000006381   -0.000048658
      7        6           0.000034043   -0.000017356    0.000034170
      8        1           0.000026921   -0.000006725   -0.000018013
      9        1          -0.000001172    0.000001147    0.000049972
 -------------------------------------------------------------------
 Cartesian Forces:  Max     0.000063500 RMS     0.000029438
 FormGI is forming the generalized inverse of G from B-inverse, IUseBI=4.

 GradGradGradGradGradGradGradGradGradGradGradGradGradGradGradGradGradGrad
 Berny optimization.
 Internal  Forces:  Max     0.000113228 RMS     0.000048815
 Search for a saddle point.
 Step number   1 out of a maximum of   37
 All quantities printed in internal units (Hartrees-Bohrs-Radians)
 Swapping is turned off.
 Second derivative matrix not updated -- analytic derivatives used.
 ITU=  0
     Eigenvalues ---    0.00895   0.01430   0.02397   0.02746   0.04191
     Eigenvalues ---    0.08349   0.10482   0.10730   0.13830   0.16570
     Eigenvalues ---    0.20712   0.26056   0.30364   0.36120   0.40064
     Eigenvalues ---    0.41270   0.54432   0.76822   1.01228   1.14055
     Eigenvalues ---    1.76956
 Eigenvectors required to have negative eigenvalues:
                          D3        D4        D6        D5        D8
   1                    0.64641   0.50970  -0.34958  -0.32422  -0.19975
                          D7        D2        D10       D9        D1
   1                   -0.17440   0.12407   0.07181   0.04739  -0.04391
 RFO step:  Lambda0=8.947092597D-03 Lambda=-3.81160288D-07.
 Linear search not attempted -- option 19 set.
 Iteration  1 RMS(Cart)=  0.00035566 RMS(Int)=  0.00000044
 Iteration  2 RMS(Cart)=  0.00000064 RMS(Int)=  0.00000007
 Variable       Old X    -DE/DX   Delta X   Delta X   Delta X     New X
                                 (Linear)    (Quad)   (Total)
    R1        2.37157  -0.00005   0.00000  -0.00005  -0.00005   2.37152
    R2        1.92243  -0.00002   0.00000  -0.00002  -0.00002   1.92241
    R3        2.72709  -0.00003   0.00000  -0.00013  -0.00013   2.72696
    R4        2.71621  -0.00002   0.00000   0.00010   0.00010   2.71631
    R5        2.14629   0.00000   0.00000   0.00002   0.00002   2.14632
    R6        2.39519  -0.00000   0.00000   0.00003   0.00003   2.39522
    R7        2.43754  -0.00005   0.00000  -0.00009  -0.00009   2.43746
    R8        2.02329   0.00000   0.00000   0.00000   0.00000   2.02329
    A1        2.03824  -0.00004   0.00000  -0.00026  -0.00026   2.03798
    A2        2.13238   0.00005   0.00000   0.00014   0.00014   2.13252
    A3        2.25917   0.00003   0.00000  -0.00009  -0.00009   2.25909
    A4        1.89163  -0.00007   0.00000  -0.00005  -0.00005   1.89158
    A5        2.45170   0.00004   0.00000   0.00010   0.00010   2.45180
    A6        2.03637  -0.00005   0.00000  -0.00005  -0.00005   2.03632
    A7        1.99527  -0.00008   0.00000  -0.00004  -0.00004   1.99523
    A8        2.17321   0.00004   0.00000  -0.00002  -0.00002   2.17318
    A9        2.11470   0.00004   0.00000   0.00006   0.00006   2.11477
    D1        0.00021  -0.00004   0.00000  -0.00086  -0.00086  -0.00065
    D2       -3.14024   0.00001   0.00000   0.00048   0.00048  -3.13975
    D3        0.00670  -0.00002   0.00000   0.00290   0.00290   0.00960
    D4       -3.13583  -0.00006   0.00000   0.00181   0.00181  -3.13402
    D5        3.13682   0.00007   0.00000  -0.00004  -0.00004   3.13678
    D6       -0.00468   0.00004   0.00000  -0.00051  -0.00051  -0.00519
    D7       -0.00375   0.00011   0.00000   0.00116   0.00116  -0.00260
    D8        3.13794   0.00008   0.00000   0.00069   0.00069   3.13862
    D9        0.00105   0.00002   0.00000  -0.00035  -0.00035   0.00070
   D10       -3.14064   0.00005   0.00000   0.00011   0.00011  -3.14053
         Item               Value     Threshold  Converged?
 Maximum Force            0.000113     0.000450     YES
 RMS     Force            0.000049     0.000300     YES
 Maximum Displacement     0.001490     0.001800     YES
 RMS     Displacement     0.000356     0.001200     YES
 Predicted change in Energy= 1.390696D-07
 Optimization completed.
    -- Stationary point found.
                           ----------------------------
                           !   Optimized Parameters   !
                           ! (Angstroms and Degrees)  !
 --------------------------                            --------------------------
 ! Name  Definition              Value          Derivative Info.                !
 --------------------------------------------------------------------------------
 ! R1    R(1,2)                  1.255          -DE/DX =    0.0                 !
 ! R2    R(1,8)                  1.0173         -DE/DX =    0.0                 !
 ! R3    R(2,3)                  1.4431         -DE/DX =    0.0                 !
 ! R4    R(2,7)                  1.4374         -DE/DX =    0.0                 !
 ! R5    R(3,4)                  1.1358         -DE/DX =    0.0                 !
 ! R6    R(5,6)                  1.2675         -DE/DX =    0.0                 !
 ! R7    R(6,7)                  1.2899         -DE/DX =    0.0                 !
 ! R8    R(7,9)                  1.0707         -DE/DX =    0.0                 !
 ! A1    A(2,1,8)              116.7826         -DE/DX =    0.0                 !
 ! A2    A(1,2,3)              122.1765         -DE/DX =    0.0                 !
 ! A3    A(1,2,7)              129.4411         -DE/DX =    0.0                 !
 ! A4    A(3,2,7)              108.3823         -DE/DX =   -0.0001              !
 ! A5    A(2,3,4)              140.4722         -DE/DX =    0.0                 !
 ! A6    A(5,6,7)              116.6756         -DE/DX =   -0.0001              !
 ! A7    A(2,7,6)              114.3208         -DE/DX =   -0.0001              !
 ! A8    A(2,7,9)              124.5155         -DE/DX =    0.0                 !
 ! A9    A(6,7,9)              121.1637         -DE/DX =    0.0                 !
 ! D1    D(8,1,2,3)              0.012          -DE/DX =    0.0                 !
 ! D2    D(8,1,2,7)           -179.9223         -DE/DX =    0.0                 !
 ! D3    D(1,2,3,4)              0.3838         -DE/DX =    0.0                 !
 ! D4    D(7,2,3,4)           -179.6697         -DE/DX =   -0.0001              !
 ! D5    D(1,2,7,6)            179.7265         -DE/DX =    0.0001              !
 ! D6    D(1,2,7,9)             -0.2681         -DE/DX =    0.0                 !
 ! D7    D(3,2,7,6)             -0.2149         -DE/DX =    0.0001              !
 ! D8    D(3,2,7,9)            179.7905         -DE/DX =    0.0001              !
 ! D9    D(5,6,7,2)              0.06           -DE/DX =    0.0                 !
 ! D10   D(5,6,7,9)           -179.9452         -DE/DX =    0.0                 !
 --------------------------------------------------------------------------------
 GradGradGradGradGradGradGradGradGradGradGradGradGradGradGradGradGradGrad

                          Input orientation:                          
 ---------------------------------------------------------------------
 Center     Atomic      Atomic             Coordinates (Angstroms)
 Number     Number       Type             X           Y           Z
 ---------------------------------------------------------------------
      1          7           0       -1.699960    1.186340    0.002480
      2          6           0       -0.575390    0.629290   -0.000390
      3          7           0       -0.428920   -0.806370   -0.000250
      4          7           0       -1.059130   -1.751250   -0.003010
      5          8           0        1.378390   -0.861000    0.003410
      6          7           0        1.702070    0.364450   -0.000030
      7          6           0        0.735570    1.218670   -0.002930
      8          1           0       -2.513840    0.576010    0.005130
      9          1           0        0.927150    2.272060   -0.006800
 ---------------------------------------------------------------------
                    Distance matrix (angstroms):
                    1          2          3          4          5
     1  N    0.000000
     2  C    1.254978   0.000000
     3  N    2.363566   1.443112   0.000000
     4  N    3.006681   2.429194   1.135769   0.000000
     5  O    3.697004   2.457282   1.808139   2.595013   0.000000
     6  N    3.499903   2.292807   2.431448   3.478566   1.267481
     7  C    2.435751   1.437356   2.335986   3.470068   2.176760
     8  H    1.017305   1.939190   2.501578   2.744519   4.149031
     9  H    2.842636   2.226289   3.363882   4.486908   3.165405
                    6          7          8          9
     6  N    0.000000
     7  C    1.289892   0.000000
     8  H    4.221218   3.312362   0.000000
     9  H    2.059010   1.070677   3.836292   0.000000
 Stoichiometry    C2H2N4O
 Framework group  C1[X(C2H2N4O)]
 Deg. of freedom    21
 Full point group                 C1      NOp   1
 Largest Abelian subgroup         C1      NOp   1
 Largest concise Abelian subgroup C1      NOp   1
                         Standard orientation:                         
 ---------------------------------------------------------------------
 Center     Atomic      Atomic             Coordinates (Angstroms)
 Number     Number       Type             X           Y           Z
 ---------------------------------------------------------------------
      1          7           0       -1.699960   -1.186338   -0.002480
      2          6           0       -0.575389   -0.629289    0.000390
      3          7           0       -0.428918    0.806371    0.000250
      4          7           0       -1.059127    1.751251    0.003010
      5          8           0        1.378392    0.860999   -0.003410
      6          7           0        1.702071   -0.364451    0.000030
      7          6           0        0.735570   -1.218670    0.002930
      8          1           0       -2.513839   -0.576007   -0.005130
      9          1           0        0.927149   -2.272061    0.006800
 ---------------------------------------------------------------------
 Rotational constants (GHZ):           4.4528440           3.4287280           1.9371336
 Rotating derivatives to standard orientation.
 Full mass-weighted force constant matrix:
 Low frequencies ---   -0.0192   -0.0128   -0.0097    0.0077    0.0137    0.0179
 Low frequencies ---  140.9446  274.6936  310.2199
 Diagonal vibrational polarizability:
        0.0000000       0.0000000       0.0000000
 Harmonic frequencies (cm**-1), IR intensities (KM/Mole), Raman scattering
 activities (A**4/AMU), depolarization ratios for plane and unpolarized
 incident light, reduced masses (AMU), force constants (mDyne/A),
 and normal coordinates:
                      1                      2                      3
                      A                      A                      A
 Frequencies --    140.9446               274.6936               310.2199
 Red. masses --      5.7893                11.6863                 5.6329
 Frc consts  --      0.0678                 0.5195                 0.3194
 IR Inten    --      0.0000                 0.0000                 0.0000
  Atom  AN      X      Y      Z        X      Y      Z        X      Y      Z
     1   7    -0.00   0.00   0.26     0.00   0.00  -0.29    -0.12   0.37   0.00
     2   6     0.00  -0.00  -0.04     0.00   0.00   0.44     0.09  -0.04  -0.00
     3   7     0.00  -0.00  -0.02     0.00   0.00   0.55     0.08  -0.08  -0.00
     4   7    -0.00  -0.00  -0.27    -0.00   0.00  -0.37    -0.27  -0.31   0.00
     5   8     0.00   0.00   0.35    -0.00  -0.00   0.03     0.08   0.02  -0.00
     6   7     0.00  -0.00  -0.06    -0.00  -0.00  -0.35     0.05   0.01   0.00
     7   6     0.00  -0.00  -0.31     0.00  -0.00   0.10     0.08  -0.04   0.00
     8   1    -0.00   0.00   0.49     0.00   0.00  -0.35     0.17   0.77   0.00
     9   1     0.00  -0.00  -0.63     0.00  -0.00  -0.16     0.16  -0.02   0.00
                      4                      5                      6
                      A                      A                      A
 Frequencies --    368.1416               416.6377               510.9328
 Red. masses --     10.2756                 5.0406                10.6198
 Frc consts  --      0.8205                 0.5155                 1.6334
 IR Inten    --      0.0000                 0.0000                 0.0000
  Atom  AN      X      Y      Z        X      Y      Z        X      Y      Z
     1   7     0.08  -0.13   0.00     0.00  -0.00  -0.04     0.41   0.09   0.00
     2   6    -0.05   0.18  -0.00    -0.00   0.00  -0.06     0.24   0.31  -0.00
     3   7    -0.25   0.14  -0.00    -0.00   0.00   0.26     0.10   0.25  -0.00
     4   7    -0.38   0.05   0.00    -0.00   0.00  -0.10    -0.28   0.05   0.00
     5   8     0.56  -0.10   0.00     0.00  -0.00  -0.23    -0.35  -0.23   0.00
     6   7     0.09  -0.14  -0.00     0.00   0.00   0.34    -0.04  -0.22   0.00
     7   6    -0.13   0.09   0.00    -0.00  -0.00  -0.25     0.00  -0.18  -0.00
     8   1    -0.12  -0.41  -0.01    -0.00  -0.00   0.83     0.28  -0.08   0.00
     9   1    -0.38   0.04  -0.00    -0.00   0.00   0.02    -0.34  -0.24   0.00
                      7                      8                      9
                      A                      A                      A
 Frequencies --    619.7309               674.5405               751.9293
 Red. masses --      8.9349                 6.0814                 7.0717
 Frc consts  --      2.0218                 1.6303                 2.3557
 IR Inten    --      0.0000                 0.0000                 0.0000
  Atom  AN      X      Y      Z        X      Y      Z        X      Y      Z
     1   7     0.04  -0.16   0.00     0.00   0.00  -0.09     0.09   0.06   0.00
     2   6    -0.12   0.13  -0.00    -0.00   0.00   0.53    -0.03   0.41   0.00
     3   7     0.53   0.08   0.00    -0.00   0.00  -0.26    -0.14  -0.36   0.00
     4   7    -0.04  -0.29  -0.00     0.00  -0.00   0.06     0.16  -0.20  -0.00
     5   8     0.09   0.15  -0.00     0.00   0.00  -0.04    -0.08  -0.05  -0.00
     6   7    -0.26   0.03   0.00    -0.00   0.00   0.16     0.14  -0.02   0.00
     7   6    -0.29   0.09  -0.00    -0.00  -0.00  -0.24    -0.10   0.27   0.00
     8   1    -0.22  -0.50   0.00     0.00  -0.00  -0.36    -0.05  -0.12   0.00
     9   1    -0.26   0.10   0.00     0.00  -0.00  -0.66    -0.67   0.17  -0.01
                     10                     11                     12
                      A                      A                      A
 Frequencies --    787.2899               818.1667               821.8056
 Red. masses --      1.2656                 1.3158                 9.3706
 Frc consts  --      0.4622                 0.5190                 3.7287
 IR Inten    --      0.0000                 0.0000                 0.0000
  Atom  AN      X      Y      Z        X      Y      Z        X      Y      Z
     1   7    -0.00  -0.00  -0.06     0.00   0.00  -0.08    -0.27  -0.10  -0.01
     2   6    -0.00   0.00   0.06     0.00  -0.00   0.01    -0.25  -0.01   0.00
     3   7    -0.00  -0.00  -0.05    -0.00  -0.00  -0.05     0.23   0.20  -0.01
     4   7     0.00  -0.00   0.01     0.00   0.00   0.01    -0.13  -0.01   0.00
     5   8    -0.00  -0.00   0.05     0.00   0.00   0.01    -0.18  -0.15   0.00
     6   7     0.00  -0.00  -0.05    -0.01   0.00  -0.03     0.49  -0.11  -0.00
     7   6     0.00   0.00  -0.07    -0.00  -0.00   0.12     0.17   0.25   0.01
     8   1    -0.00  -0.00   0.47     0.00   0.01   0.85    -0.43  -0.32   0.08
     9   1    -0.00   0.00   0.87     0.00  -0.00  -0.50    -0.04   0.19  -0.06
                     13                     14                     15
                      A                      A                      A
 Frequencies --   1039.9766              1109.7072              1188.6116
 Red. masses --      1.7096                 1.5715                 2.3721
 Frc consts  --      1.0894                 1.1402                 1.9745
 IR Inten    --      0.0000                 0.0000                 0.0000
  Atom  AN      X      Y      Z        X      Y      Z        X      Y      Z
     1   7    -0.03   0.05  -0.00     0.02  -0.04   0.00    -0.08  -0.16  -0.00
     2   6    -0.07   0.15  -0.00    -0.01   0.03  -0.00    -0.10   0.20  -0.00
     3   7    -0.01  -0.03  -0.00     0.01  -0.00   0.00     0.02  -0.01   0.00
     4   7     0.00  -0.01  -0.00    -0.00  -0.00   0.00    -0.01   0.01   0.00
     5   8     0.02   0.01  -0.00     0.00  -0.14   0.00     0.01   0.07  -0.00
     6   7    -0.04  -0.00   0.00    -0.06   0.02  -0.00     0.00  -0.02   0.00
     7   6     0.12  -0.13   0.00    -0.05   0.12  -0.00     0.11  -0.13   0.00
     8   1    -0.47  -0.57  -0.00     0.26   0.31  -0.00     0.53   0.76   0.00
     9   1     0.63  -0.03  -0.00     0.84   0.29  -0.00    -0.05  -0.16   0.00
                     16                     17                     18
                      A                      A                      A
 Frequencies --   1278.0791              1512.2709              1706.5209
 Red. masses --      4.8413                10.5960                 9.8856
 Frc consts  --      4.6594                14.2774                16.9620
 IR Inten    --      0.0000                 0.0000                 0.0000
  Atom  AN      X      Y      Z        X      Y      Z        X      Y      Z
     1   7    -0.07  -0.02  -0.00     0.08   0.06   0.00    -0.43  -0.19  -0.00
     2   6     0.00   0.03  -0.00    -0.14  -0.11  -0.00     0.68   0.17   0.00
     3   7     0.05   0.00   0.00    -0.01  -0.03   0.00     0.01  -0.00  -0.00
     4   7    -0.01   0.00   0.00    -0.01   0.02   0.00    -0.02   0.03   0.00
     5   8     0.05  -0.30   0.00     0.02   0.09  -0.00    -0.02   0.04  -0.00
     6   7    -0.16   0.33  -0.00    -0.38  -0.43   0.00    -0.10  -0.13   0.00
     7   6     0.22   0.01   0.00     0.52   0.40  -0.00     0.01   0.11  -0.00
     8   1    -0.13  -0.09  -0.00     0.04   0.02   0.00    -0.44  -0.15  -0.00
     9   1    -0.81  -0.16  -0.00    -0.35   0.26  -0.00     0.03   0.13  -0.00
                     19                     20                     21
                      A                      A                      A
 Frequencies --   2076.0950              3187.1579              3339.0723
 Red. masses --     13.9332                 1.0855                 1.0735
 Frc consts  --     35.3831                 6.4966                 7.0521
 IR Inten    --      0.0000                 0.0000                 0.0000
  Atom  AN      X      Y      Z        X      Y      Z        X      Y      Z
     1   7    -0.03  -0.03  -0.00    -0.00   0.00  -0.00    -0.06   0.04  -0.00
     2   6     0.01   0.03   0.00    -0.00  -0.00  -0.00     0.00   0.00   0.00
     3   7    -0.37   0.61   0.00    -0.00   0.00  -0.00     0.00   0.00   0.00
     4   7     0.37  -0.58  -0.00    -0.00   0.00   0.00    -0.00  -0.00  -0.00
     5   8    -0.01  -0.02   0.00    -0.00   0.00  -0.00     0.00   0.00  -0.00
     6   7    -0.03  -0.01   0.00     0.00  -0.00   0.00    -0.00  -0.00   0.00
     7   6     0.06  -0.01  -0.00     0.01  -0.08   0.00     0.00  -0.00  -0.00
     8   1     0.02   0.06   0.00     0.00  -0.00   0.00     0.82  -0.57   0.00
     9   1     0.00  -0.02   0.00    -0.18   0.98  -0.00     0.00  -0.00   0.00

 -------------------
 - Thermochemistry -
 -------------------
 Temperature   298.150 Kelvin.  Pressure   1.00000 Atm.
 Atom     1 has atomic number  7 and mass  14.00307
 Atom     2 has atomic number  6 and mass  12.00000
 Atom     3 has atomic number  7 and mass  14.00307
 Atom     4 has atomic number  7 and mass  14.00307
 Atom     5 has atomic number  8 and mass  15.99491
 Atom     6 has atomic number  7 and mass  14.00307
 Atom     7 has atomic number  6 and mass  12.00000
 Atom     8 has atomic number  1 and mass   1.00783
 Atom     9 has atomic number  1 and mass   1.00783
 Molecular mass:    98.02286 amu.
 Principal axes and moments of inertia in atomic units:
                           1         2         3
     Eigenvalues --   405.30079 526.35881 931.65550
           X            0.99984  -0.01770   0.00013
           Y            0.01770   0.99984  -0.00011
           Z           -0.00013   0.00011   1.00000
 This molecule is an asymmetric top.
 Rotational symmetry number  1.
 Rotational temperatures (Kelvin)      0.21370     0.16455     0.09297
 Rotational constants (GHZ):           4.45284     3.42873     1.93713
 Zero-point vibrational energy     137167.0 (Joules/Mol)
                                   32.78369 (Kcal/Mol)
 Warning -- explicit consideration of   7 degrees of freedom as
           vibrations may cause significant error
 Vibrational temperatures:    202.79   395.22   446.34   529.67   599.45
          (Kelvin)            735.12   891.65   970.51  1081.86  1132.73
                             1177.16  1182.39  1496.29  1596.62  1710.15
                             1838.87  2175.82  2455.30  2987.04  4585.61
                             4804.18
 
 Zero-point correction=                           0.052244 (Hartree/Particle)
 Thermal correction to Energy=                    0.058134
 Thermal correction to Enthalpy=                  0.059078
 Thermal correction to Gibbs Free Energy=         0.022672
 Sum of electronic and zero-point Energies=            -20.814977
 Sum of electronic and thermal Energies=               -20.809087
 Sum of electronic and thermal Enthalpies=             -20.808143
 Sum of electronic and thermal Free Energies=          -20.844549
 
                     E (Thermal)             CV                S
                      KCal/Mol        Cal/Mol-Kelvin    Cal/Mol-Kelvin
 Total                   36.480             21.052             76.624
 Electronic               0.000              0.000              0.000
 Translational            0.889              2.981             39.658
 Rotational               0.889              2.981             26.788
 Vibrational             34.702             15.090             10.177
 Vibration     1          0.615              1.912              2.791
 Vibration     2          0.677              1.720              1.566
 Vibration     3          0.699              1.654              1.361
 Vibration     4          0.741              1.538              1.088
 Vibration     5          0.780              1.434              0.903
 Vibration     6          0.866              1.226              0.631
 Vibration     7          0.980              0.990              0.417
                       Q            Log10(Q)             Ln(Q)
 Total Bot       0.372965D-10        -10.428332        -24.012122
 Total V=0       0.400203D+14         13.602281         31.320409
 Vib (Bot)       0.612661D-23        -23.212780        -53.449401
 Vib (Bot)    1  0.144229D+01          0.159054          0.366235
 Vib (Bot)    2  0.701857D+00         -0.153751         -0.354025
 Vib (Bot)    3  0.609466D+00         -0.215050         -0.495172
 Vib (Bot)    4  0.495161D+00         -0.305254         -0.702872
 Vib (Bot)    5  0.422524D+00         -0.374149         -0.861510
 Vib (Bot)    6  0.318538D+00         -0.496839         -1.144014
 Vib (Bot)    7  0.236041D+00         -0.627012         -1.443749
 Vib (V=0)       0.657405D+01          0.817833          1.883130
 Vib (V=0)    1  0.202650D+01          0.306747          0.706312
 Vib (V=0)    2  0.136174D+01          0.134096          0.308767
 Vib (V=0)    3  0.128832D+01          0.110024          0.253339
 Vib (V=0)    4  0.120369D+01          0.080516          0.185395
 Vib (V=0)    5  0.115462D+01          0.062439          0.143771
 Vib (V=0)    6  0.109285D+01          0.038559          0.088785
 Vib (V=0)    7  0.105292D+01          0.022393          0.051563
 Electronic      0.100000D+01          0.000000          0.000000
 Translational   0.381456D+08          7.581445         17.456922
 Rotational      0.159589D+06          5.203003         11.980357
 ***** Axes restored to original set *****
 -------------------------------------------------------------------
 Center     Atomic                   Forces (Hartrees/Bohr)
 Number     Number              X              Y              Z
 -------------------------------------------------------------------
      1        7           0.000029365    0.000008179   -0.000034546
      2        6          -0.000063500   -0.000025576   -0.000015989
      3        7           0.000011825    0.000042911    0.000008913
      4        7           0.000014564   -0.000014960    0.000053865
      5        8          -0.000022023    0.000005998   -0.000029715
      6        7          -0.000030023    0.000006381   -0.000048658
      7        6           0.000034043   -0.000017356    0.000034170
      8        1           0.000026921   -0.000006725   -0.000018013
      9        1          -0.000001172    0.000001147    0.000049972
 -------------------------------------------------------------------
 Cartesian Forces:  Max     0.000063500 RMS     0.000029438
 1\1\GINC-NODE305\Freq\RExternal='/groups/kemi/mharris/github/xtb_ts_te
 st/xtb_external.py'\ZDO\C2H2N4O1\MHARRIS\11-Jun-2021\0\\#opt=(calcall,
  ts, noeigen, nomicro, maxstep=15) external="/groups/kemi/mharris/gith
 ub/xtb_ts_test/xtb_external.py"\\something title\\0,1\N,-1.69996,1.186
 34,0.00248\C,-0.57539,0.62929,-0.00039\N,-0.42892,-0.80637,-0.00025\N,
 -1.05913,-1.75125,-0.00301\O,1.37839,-0.861,0.00341\N,1.70207,0.36445,
 -0.00003\C,0.73557,1.21867,-0.00293\H,-2.51384,0.57601,0.00513\H,0.927
 15,2.27206,-0.0068\\Version=ES64L-G16RevA.03\HF=-20.8672209\RMSD=0.000
 e+00\RMSF=2.944e-05\ZeroPoint=0.0522441\Thermal=0.058134\Dipole=-0.665
 9994,0.6260007,-0.002\PG=C01 [X(C2H2N4O1)]\NImag=0\\0.82368650,-0.0718
 7754,0.36443973,-0.00211744,0.00005441,0.04861182,-0.49357338,0.178695
 78,0.00115975,0.85680021,0.20135497,-0.14161023,-0.00053129,-0.1035758
 8,0.35939749,0.00116193,-0.00045838,-0.04297070,-0.00144692,0.00022975
 ,0.13330285,-0.03076125,0.03419882,0.00005376,-0.03686428,0.01780973,0
 .00003719,0.46450636,0.05974380,-0.06978745,-0.00016405,-0.01729626,-0
 .03999774,0.00015929,0.45268486,0.98657895,0.00010914,-0.00015214,0.02
 976028,0.00011391,0.00016432,-0.07025715,0.00113448,0.00185810,0.08875
 656,0.00365651,0.00861138,0.00003953,-0.00615898,-0.03078896,-0.000086
 08,-0.35287513,-0.45825530,-0.00135343,0.38072526,-0.00283034,0.008758
 11,0.00007322,-0.03856856,-0.07879546,-0.00018471,-0.45759310,-0.77541
 542,-0.00204152,0.50403267,0.83684638,-0.00000975,0.00003973,-0.004918
 78,-0.00012473,-0.00015886,0.01372919,-0.00135424,-0.00204565,-0.02974
 009,0.00152059,0.00224075,0.01409021,0.00654726,0.00617818,0.00001554,
 -0.03775949,0.00750296,-0.00006190,-0.00749786,0.02402313,-0.00007855,
 -0.01011626,-0.00724440,-0.00000118,0.11530155,0.01303452,-0.01469305,
 -0.00014126,-0.01621407,0.00013207,0.00015357,0.01434973,-0.06139197,-
 0.00003819,-0.00519080,0.02658386,0.00001833,0.00911108,0.53213024,-0.
 00005003,0.00006852,-0.00782352,0.00001852,-0.00007726,0.00318025,0.00
 008438,0.00014429,-0.02201965,-0.00017659,-0.00012369,0.00430903,0.000
 05615,-0.00141383,0.03529780,0.00568051,-0.00489213,-0.00002226,-0.094
 43106,-0.00004986,-0.00005087,0.00748316,0.00668623,0.00017525,-0.0327
 0161,-0.02324987,-0.00010743,-0.09618954,-0.05443200,0.00009579,0.5107
 2966,-0.02369992,0.00789782,0.00017718,0.07572347,0.01777130,-0.000113
 79,-0.04600887,-0.00899848,0.00005845,-0.01862198,-0.01215496,-0.00008
 853,-0.06528061,-0.37293442,0.00101344,-0.11434095,0.63195525,0.000079
 24,-0.00004925,0.01209734,-0.00015986,0.00005638,0.01785498,0.00008468
 ,0.00003717,0.00573196,0.00005270,0.00001752,0.00032131,0.00013285,0.0
 0099269,-0.03920009,0.00057687,-0.00172781,0.06055684,-0.07396577,-0.0
 0227606,0.00016811,-0.14243816,-0.05223870,0.00025578,-0.03648255,-0.0
 6165580,-0.00007235,0.01570933,0.02528868,0.00006801,0.02988073,0.0343
 0136,-0.00003454,-0.30251233,0.16940511,-0.00065903,0.55817045,0.01446
 703,0.00756977,-0.00008240,-0.09554527,-0.10589854,0.00025313,-0.02006
 940,-0.03472646,0.00014687,0.00194473,-0.00830235,-0.00002145,0.023892
 53,-0.11021635,0.00033818,0.19355330,-0.23695659,0.00063658,-0.0637931
 5,0.80014087,0.00011510,0.00000699,-0.00966058,0.00031293,0.00021273,-
 0.05555277,-0.00010870,-0.00004157,0.00730001,0.00005181,0.00009290,0.
 00018173,-0.00001417,0.00023304,0.00705035,-0.00070669,0.00080213,-0.0
 3700245,0.00007887,-0.00236635,0.09490734,-0.24202773,-0.14874863,0.00
 070447,-0.04214741,-0.01801275,0.00012235,-0.00134559,-0.00449564,-0.0
 0005077,0.00155916,0.00269527,0.00001716,0.00145557,-0.00234567,0.0000
 3204,-0.00353234,0.00222772,-0.00003943,0.00040003,0.00241532,0.000059
 39,0.28564601,-0.19120578,-0.16233339,0.00061919,0.02014380,-0.0017041
 3,-0.00006357,0.00564750,0.00566356,-0.00000968,-0.00255274,0.00168714
 ,0.00000782,-0.00108989,0.00254732,-0.00000853,-0.00274751,-0.00075210
 ,-0.00000050,0.00540903,0.00056112,0.00000526,0.16612226,0.15398517,0.
 00072178,0.00048866,-0.02500232,0.00013836,0.00007224,0.00189209,0.000
 02270,0.00004848,-0.01185814,-0.00002574,-0.00005668,0.00197586,-0.000
 02864,0.00009357,0.00618287,0.00002873,-0.00010674,-0.00892061,-0.0000
 1376,0.00001264,0.01595932,-0.00084502,-0.00055035,0.01970918,0.000757
 35,0.00011020,-0.00000146,-0.00342745,-0.02200151,0.00006851,-0.006162
 85,-0.00143501,0.00002231,0.00020171,-0.00253037,-0.00000845,-0.001621
 95,0.00738586,-0.00002572,0.00547355,0.02059604,-0.00006802,-0.0487617
 3,-0.05686510,0.00021147,-0.00000772,0.00027332,0.00000159,0.05354909,
 0.00101327,-0.00024132,-0.00000501,-0.00336302,-0.00929478,0.00002471,
 -0.00101926,-0.00192499,0.00001378,0.00082100,0.00079269,0.00000786,0.
 00290703,-0.00215771,0.00005889,-0.00052721,-0.02582782,0.00003723,-0.
 05444047,-0.31217146,0.00105487,0.00014211,0.00034530,-0.00000182,0.05
 446655,0.35048009,-0.00000998,0.00000145,-0.00009353,-0.00001197,0.000
 03200,-0.00117872,0.00004576,0.00000394,0.00232622,-0.00002280,-0.0000
 1777,0.00005155,-0.00002010,0.00010208,0.01302296,0.00001062,-0.000014
 34,-0.01143927,0.00020891,0.00108279,-0.02318295,-0.00000019,0.0000003
 6,0.00006176,-0.00020024,-0.00119050,0.02043199\\-0.00002937,-0.000008
 18,0.00003455,0.00006350,0.00002558,0.00001599,-0.00001182,-0.00004291
 ,-0.00000891,-0.00001456,0.00001496,-0.00005387,0.00002202,-0.00000600
 ,0.00002971,0.00003002,-0.00000638,0.00004866,-0.00003404,0.00001736,-
 0.00003417,-0.00002692,0.00000672,0.00001801,0.00000117,-0.00000115,-0
 .00004997\\\@


 BULLDOZER: SOMEONE WHO SLEEPS THROUGH SPEECHES.
 Job cpu time:       0 days  0 hours  0 minutes  0.5 seconds.
 Elapsed time:       0 days  0 hours  0 minutes  1.2 seconds.
 File lengths (MBytes):  RWF=      6 Int=      0 D2E=      0 Chk=      1 Scr=      1
 Normal termination of Gaussian 16 at Fri Jun 11 13:02:55 2021.
