      -----------------------------------------------------------      
     |                   =====================                   |     
     |                           x T B                           |     
     |                   =====================                   |     
     |                         S. Grimme                         |     
     |          Mulliken Center for Theoretical Chemistry        |     
     |                    University of Bonn                     |     
     |                 Version 6.1.4 (SAW190525)                 |     
      -----------------------------------------------------------      

   This program is distributed in the hope that it will be useful,
   but WITHOUT ANY WARRANTY; without even the implied warranty of
   MERCHANTABILITY or FITNESS FOR A PARTICULAR PURPOSE.
   
   FOR NON-COMMERCIAL, ACADEMIA USE ONLY.
   
   Cite this work as:
   S. Grimme, C. Bannwarth, P. Shushkov, J. Comput. Theory Chem., 2017,
   13, 1989-2009. DOI: 10.1021/acs.jctc.7b00118
   C. Bannwarth, S. Ehlert and S. Grimme., J. Comput. Theory Chem., 2019,
   just accepted. DOI: 10.1021/acs.jctc.8b01176
   
   for sTDA-xTB:
   S. Grimme and C. Bannwarth, J. Chem. Phys., 2016, 145, 054103.
   DOI: 10.1063/1.4959605
   
   in the mass-spec context:
   V. Asgeirsson, C. Bauer and S. Grimme, Chem. Sci., 2017, 8, 4879.
   DOI: 10.1039/c7sc00601b
   
   for metadynamics refer to:
   S. Grimme, J. Chem. Theory Comput. Article ASAP, 2019,
   DOI: 10.1021/acs.jctc.9b00143
   
   with help from (in alphabetical order)
   C. Bannwarth, F. Bohle, G. Brandenburg, E. Caldeweyher, M. Checinski,
   S. Dohm, S. Ehlert, S. Ehrlich, F. März, H. Neugebauer, J. Pisarek,
   P. Pracht, P. Shushkov, and S. Spicher.
   
 * started run on 2021/06/02 at 10:00:03.572     

           -------------------------------------------------
          |                Calculation Setup                |
           -------------------------------------------------

          program call               : /groups/kemi/koerstz/opt/xtb/6.1/bin/xtb reactant.xyz --path --input path.inp --gfn2
          hostname                   : node305
          coordinate file            : reactant.xyz
          omp threads                :                     1
          number of atoms            :                     9
          number of electrons        :                    36
          charge                     :                     0
          spin                       :                   0.0
          first test random number   :      0.94419989607157


########################################################################
# WARNING! Please study the warnings concerning your input carefully
#  - XTBPATH is not set, using XTBHOME instead
########################################################################

           ------------------------------------------------- 
          |                 G F N 2 - x T B                 |
          | Geometry, Frequencies, Noncovalent interactions |
          |            JCTC 2018 parametrisation            |
           ------------------------------------------------- 
             k(s)              :                1.8500
             k(p)              :                2.2300
             k(d)              :                2.2300
             k(f)              :                2.0000
             kEN (H0ij)        :               -2.0000
             D4 a1             :                0.5200
             D4 a2             :                5.0000
             D4 s6             :                1.0000
             D4 s8             :                2.7000
             D4 s9             :                5.0000
             alphaj            :                2.0000

  Z AO/shell   Hii/eV     exponent
  1     Wed Apr 25 08:07:45 CEST 2018   EN: 2.200 GM2: 0.406  GM3: 0.0800  RAES: 1.40
     1s    -10.707211    1.230000
  6     Wed Apr 25 08:07:45 CEST 2018   EN: 2.550 GM2: 0.538  GM3: 0.1500  RAES: 3.00
     2s    -13.970922    2.096432
     2p    -10.063292    1.800000
  7     Wed Apr 25 08:07:45 CEST 2018   EN: 3.040 GM2: 0.461  GM3:-0.0640  RAES: 1.90
     2s    -16.686243    2.339881
     2p    -12.523956    2.014332
  8     Wed Apr 25 08:07:45 CEST 2018   EN: 3.440 GM2: 0.452  GM3:-0.0517  RAES: 1.80
     2s    -20.229985    2.439742
     2p    -15.503117    2.137023


            Z     q(EN)     CN     RAES       Cart. coordinates
     1  N   5.0   -0.46    2.01    1.90    -1.43071     1.02007    -0.99726
     2  C   4.0    0.30    3.03    3.02    -0.31083    -0.95166    -0.30267
     3  N   5.0   -0.04    2.47    1.90    -1.31276    -3.43960    -0.79484
     4  N   5.0   -0.19    1.00    1.90    -3.00073    -4.39074    -1.71851
     5  O   6.0   -0.04    1.48    1.80     1.19262    -5.23363     0.68036
     6  N   5.0   -0.19    2.03    1.90     2.68047    -3.53277     1.47508
     7  C   4.0    0.12    3.04    3.02     2.03536    -1.22307     1.03814
     8  H   1.0    0.33    1.00    1.43    -3.09319     0.78803    -1.93371
     9  H   1.0    0.17    1.00    1.43     3.19186     0.32099     1.64877

           ------------------------------------------------- 
          |        Self-Consistent Charge Iterations        |
           ------------------------------------------------- 

          ...................................................
          :                      SETUP                      :
          :.................................................:
          :  # basis functions                  30          :
          :  # atomic orbitals                  30          :
          :  # shells                           16          :
          :  # electrons                        36          :
          :  max. iterations                   250          :
          :  Hamiltonian                  GFN2-xTB          :
          :  restarted?                      false          :
          :  GBSA solvation                  false          :
          :  PC potential                    false          :
          :  electronic temp.          300.0000000     K    :
          :  accuracy                    1.0000000          :
          :  -> integral cutoff          0.2500000E+02      :
          :  -> integral neglect         0.1000000E-07      :
          :  -> SCF convergence          0.1000000E-05 Eh   :
          :  -> wf. convergence          0.1000000E-03 e    :
          :  Broyden damping             0.4000000          :
          ...................................................

 iter      E             dE          RMSdq      gap      omega  full diag
   1    -20.9654474 -0.209654E+02  0.636E+00    1.83       0.0  T
   2    -21.0785748 -0.113127E+00  0.316E+00    1.09       1.0  T
   3    -21.0934028 -0.148280E-01  0.174E+00    1.07       1.0  T
   4    -21.0981109 -0.470811E-02  0.766E-01    0.84       1.0  T
   5    -21.0996537 -0.154284E-02  0.229E-01    0.81       1.0  T
   6    -21.0998045 -0.150804E-03  0.107E-01    0.78       1.0  T
   7    -21.0998279 -0.233810E-04  0.468E-02    0.80       1.0  T
   8    -21.0998404 -0.124550E-04  0.159E-02    0.79       2.1  T
   9    -21.0998406 -0.205473E-06  0.439E-03    0.79       7.6  T
  10    -21.0998407 -0.700599E-07  0.172E-03    0.79      19.4  T
  11    -21.0998407 -0.879652E-08  0.733E-04    0.79      45.5  T
  12    -21.0998407 -0.283486E-08  0.136E-04    0.79     245.8  T

   *** convergence criteria satisfied after 12 iterations ***

         #    Occupation            Energy/Eh            Energy/eV
      -------------------------------------------------------------
         1        2.0000           -0.7596978             -20.6724
       ...           ...                  ...                  ...
        12        2.0000           -0.5394102             -14.6781
        13        2.0000           -0.5325742             -14.4921
        14        2.0000           -0.5025021             -13.6738
        15        2.0000           -0.4943822             -13.4528
        16        2.0000           -0.4561854             -12.4134
        17        2.0000           -0.4404558             -11.9854
        18        2.0000           -0.3979705             -10.8293 (HOMO)
        19        0.0000           -0.3688412             -10.0367 (LUMO)
        20                         -0.2932562              -7.9799
        21                         -0.2855927              -7.7714
        22                         -0.1993518              -5.4246
        23                         -0.0059537              -0.1620
       ...                                ...                  ...
        30                          0.7383232              20.0908
      -------------------------------------------------------------
                  HL-Gap            0.0291292 Eh            0.7926 eV
             Fermi-level           -0.3834059 Eh          -10.4330 eV

 SCC (total)                   0 d,  0 h,  0 min,  0.007 sec
 SCC setup                      ...        0 min,  0.000 sec (  1.890%)
 Dispersion                     ...        0 min,  0.000 sec (  0.817%)
 integral evaluation            ...        0 min,  0.001 sec ( 14.949%)
 zeroth order Hamiltonian       ...        0 min,  0.000 sec (  1.342%)
 iterations                     ...        0 min,  0.004 sec ( 51.785%)
 molecular gradient             ...        0 min,  0.002 sec ( 25.893%)
 printout                       ...        0 min,  0.000 sec (  2.865%)

         :::::::::::::::::::::::::::::::::::::::::::::::::::::
         ::                     SUMMARY                     ::
         :::::::::::::::::::::::::::::::::::::::::::::::::::::
         :: total energy              -20.867221392069 Eh   ::
         :: gradient norm               0.000418565256 Eh/α ::
         :: HOMO-LUMO gap               0.792646556914 eV   ::
         ::.................................................::
         :: SCC energy                -21.099840663660 Eh   ::
         :: -> isotropic ES             0.027509011141 Eh   ::
         :: -> anisotropic ES           0.003527434085 Eh   ::
         :: -> anisotropic XC           0.029885380044 Eh   ::
         :: -> dispersion              -0.006055439347 Eh   ::
         :: repulsion energy            0.232616160675 Eh   ::
         :: add. restraining            0.000000000000 Eh   ::
         :::::::::::::::::::::::::::::::::::::::::::::::::::::

           -------------------------------------------------
          |                Property Printout                |
           -------------------------------------------------

    * Orbital Energies and Occupations

         #    Occupation            Energy/Eh            Energy/eV
      -------------------------------------------------------------
         1        2.0000           -0.7596978             -20.6724
       ...           ...                  ...                  ...
         6        2.0000           -0.6536076             -17.7856
         7        2.0000           -0.6260316             -17.0352
         8        2.0000           -0.6164607             -16.7747
         9        2.0000           -0.5842392             -15.8980
        10        2.0000           -0.5790998             -15.7581
        11        2.0000           -0.5538829             -15.0719
        12        2.0000           -0.5394102             -14.6781
        13        2.0000           -0.5325742             -14.4921
        14        2.0000           -0.5025021             -13.6738
        15        2.0000           -0.4943822             -13.4528
        16        2.0000           -0.4561854             -12.4134
        17        2.0000           -0.4404558             -11.9854
        18        2.0000           -0.3979705             -10.8293 (HOMO)
        19        0.0000           -0.3688412             -10.0367 (LUMO)
        20                         -0.2932562              -7.9799
        21                         -0.2855927              -7.7714
        22                         -0.1993518              -5.4246
        23                         -0.0059537              -0.1620
        24                          0.0508001               1.3823
        25                          0.0923810               2.5138
        26                          0.2170151               5.9053
        27                          0.3179973               8.6531
        28                          0.4070562              11.0766
        29                          0.5508371              14.9890
        30                          0.7383232              20.0908
      -------------------------------------------------------------
                  HL-Gap            0.0291292 Eh            0.7926 eV
             Fermi-level           -0.3834059 Eh          -10.4330 eV

   #   Z        covCN         q      C6AA      α(0)
   1   7 N      1.778    -0.271    27.861     7.817
   2   6 C      2.829     0.163    24.473     8.106
   3   7 N      2.325     0.217    17.850     6.273
   4   7 N      0.985    -0.134    23.513     6.974
   5   8 O      1.360    -0.271    18.841     5.842
   6   7 N      1.861     0.034    21.320     6.844
   7   6 C      2.858    -0.001    28.054     8.681
   8   1 H      0.860     0.179     1.223     1.732
   9   1 H      0.926     0.084     1.937     2.176

 Mol. C6AA /au·bohr⁶  :       1295.014374
 Mol. C8AA /au·bohr⁸  :      29606.777951
 Mol. α(0) /au        :         54.445357


Wiberg/Mayer (AO) data.
largest (>0.10) Wiberg bond orders for each atom
          total WBO             WBO to atom ...
     1  N   3.107        C    2 1.791    H    8 0.935    N    4 0.120
     2  C   3.953        N    1 1.791    C    7 1.123    N    3 0.921
     3  N   3.783        N    4 2.307    C    2 0.921    O    5 0.380
     4  N   2.828        N    3 2.307    O    5 0.266    N    1 0.120
     5  O   2.272        N    6 1.313    N    3 0.380    N    4 0.266    C    7 0.177
     6  N   3.221        C    7 1.625    O    5 1.313
     7  C   3.968        N    6 1.625    C    2 1.123    H    9 0.959    O    5 0.177
     8  H   0.968        N    1 0.935
     9  H   0.993        C    7 0.959

molecular dipole:
                 x           y           z       tot (Debye)
 q only:       -0.063       0.874      -0.063
   full:       -0.217       0.875      -0.151       2.322
molecular quadrupole (traceless):
                xx          xy          yy          xz          yz          zz
 q only:        4.393       1.022      -7.705       0.884       0.700       3.312
  q+dip:        5.068       1.056     -10.050       0.121       0.857       4.981
   full:        4.645       0.864     -10.939      -1.319       0.842       6.294


           -------------------------------------------------
          | TOTAL ENERGY              -20.867221392069 Eh   |
          | GRADIENT NORM               0.000418565256 Eh/α |
          | HOMO-LUMO GAP               0.792646556914 eV   |
           -------------------------------------------------
           ------------------------------------------------- 
          |                     P A T H                     |
          |            RMSD-Push/Pull Path Finder           |
           ------------------------------------------------- 
 reading reference structures from product.xyz ...
initial k push/pull              :    0.008   -0.020
Gaussian width (1/Bohr)          :    0.600
# random initial distor incr +/- :    0.005
# optlevel                       :   2
# of runs                        :   3
approx # structures opt on path  : 100
# of 'an'-optimization steps     :   3
 
  k_push/k_pull internally multiplied by Natoms!
  user info on effect of push/pull parameters
  ang. ed-prod G should be small, Govlp large
   width   k_push  k_pull  |Gbias| ang. ed-prod G  Govlp
   1.000   0.008  -0.020    0.000457   163.4     0.00000
   0.900   0.012  -0.030    0.001355   156.5     0.00000
   0.800   0.018  -0.045    0.003962   155.7     0.00000
   0.700   0.027  -0.068    0.011407   155.6     0.00000
   0.600   0.041  -0.101    0.032171   155.6     0.00002
   0.500   0.061  -0.152    0.088213   155.6     0.00013
   0.400   0.091  -0.228    0.232202   155.6     0.00093
   0.300   0.137  -0.342    0.573021   155.6     0.00565
   0.200   0.205  -0.513    1.256964   155.6     0.02718
input reactant/product RMSD (Bohr)  :    2.803

 
 optimizing inital path with Vbias ...
actual k push/pull :   0.008  -0.020

          ...................................................
          :                      SETUP                      :
          :.................................................:
          :   optimization level         verytight          :
          :   max. optcycles                   200          :
          :   ANC micro-cycles                  20          :
          :   degrees of freedom                21          :
          :.................................................:
          :   RF solver                   davidson          :
          :   input Hessian                  false          :
          :   write xtbopt.log                true          :
          :   linear?                        false          :
          :   energy convergence         0.1000000E-06 Eh   :
          :   grad. convergence          0.2000000E-03 Eh/α :
          :   maximium RF displ.         1.0000000          :
          :   Hlow (freq-cutoff)         0.1000000E-01      :
          :   Hmax (freq-cutoff)         5.0000000          :
          :   S6 in model hess.         20.0000000          :
          ...................................................

generating ANC from model Hessian ...
Using Lindh-Hessian (1995)
 Shifting diagonal of input Hessian by   0.000000000000000E+000
 Lowest  eigenvalues of input Hessian
   -0.000000   -0.000000   -0.000000   -0.000000    0.000000    0.000000
    0.010902    0.032499    0.050491    0.061277    0.094000    0.095891
    0.149205    0.158837    0.163392    0.293811    0.356847    0.363266
 Highest eigenvalues
    1.206314    1.529598    1.720626    2.048200    2.300743    2.576217
 

........................................................................
.............................. CYCLE    1 ..............................
........................................................................
   1    -21.1026208 -0.211026E+02  0.975E-02    0.83       0.0  T
   2    -21.1026237 -0.294429E-05  0.102E-01    0.79       1.0  T
   3    -21.1027063 -0.825983E-04  0.218E-02    0.81       1.5  T
   4    -21.1027058  0.473050E-06  0.142E-02    0.81       2.3  T
   5    -21.1027065 -0.664028E-06  0.449E-03    0.81       7.4  T
   6    -21.1027066 -0.850816E-07  0.149E-03    0.81      22.4  T
   7    -21.1027066 -0.475889E-08  0.377E-04    0.81      88.5  T
   8    -21.1027066 -0.417131E-09  0.165E-04    0.81     202.4  T
   9    -21.1027066 -0.286420E-10  0.635E-05    0.81     525.3  T
  10    -21.1027066 -0.161897E-10  0.255E-05    0.81    1308.1  T
  11    -21.1027066 -0.127187E-11  0.110E-05    0.81    3032.3  T
     SCC iter.                  ...        0 min,  0.002 sec
     gradient                   ...        0 min,  0.002 sec
 * total energy  :   -20.7967585 Eh     change       -0.2079676E+02 Eh
   gradient norm :     0.0156500 Eh/α   predicted     0.0000000E+00 (-100.00%)
   displ. norm   :     0.0631688 α      lambda       -0.1632163E-03
   maximum displ.:     0.0622274 α      in ANC's #1, #19, #21, ...

........................................................................
.............................. CYCLE    2 ..............................
........................................................................
   1    -21.1004761 -0.211005E+02  0.113E-01    0.79       0.0  T
   2    -21.1004855 -0.932411E-05  0.726E-02    0.81       1.0  T
   3    -21.1004999 -0.144234E-04  0.438E-02    0.79       1.0  T
   4    -21.1005084 -0.849254E-05  0.123E-02    0.80       2.7  T
   5    -21.1005090 -0.623489E-06  0.475E-03    0.80       7.0  T
   6    -21.1005091 -0.915365E-07  0.173E-03    0.80      19.3  T
   7    -21.1005091 -0.330630E-08  0.508E-04    0.80      65.6  T
   8    -21.1005091 -0.554934E-11  0.269E-04    0.80     123.8  T
   9    -21.1005091 -0.319162E-09  0.690E-05    0.80     483.1  T
  10    -21.1005091 -0.929745E-11  0.368E-05    0.80     907.0  T
     SCC iter.                  ...        0 min,  0.002 sec
     gradient                   ...        0 min,  0.002 sec
 * total energy  :   -20.7968688 Eh     change       -0.1103087E-03 Eh
   gradient norm :     0.0050886 Eh/α   predicted    -0.8193261E-04 ( -25.72%)
   displ. norm   :     0.0862517 α      lambda       -0.9666216E-04
   maximum displ.:     0.0844287 α      in ANC's #1, #6, #4, ...

........................................................................
.............................. CYCLE    3 ..............................
........................................................................
   1    -21.0993095 -0.210993E+02  0.133E-01    0.78       0.0  T
   2    -21.0993145 -0.500897E-05  0.796E-02    0.80       1.0  T
   3    -21.0993137  0.837667E-06  0.568E-02    0.78       1.0  T
   4    -21.0993335 -0.198024E-04  0.101E-02    0.79       3.3  T
   5    -21.0993340 -0.484629E-06  0.394E-03    0.79       8.5  T
   6    -21.0993340 -0.496284E-07  0.153E-03    0.79      21.8  T
   7    -21.0993340 -0.369657E-08  0.538E-04    0.79      62.0  T
   8    -21.0993340 -0.656648E-10  0.256E-04    0.79     130.3  T
   9    -21.0993340 -0.321197E-09  0.752E-05    0.79     443.1  T
  10    -21.0993340 -0.566303E-11  0.212E-05    0.79    1574.6  T
     SCC iter.                  ...        0 min,  0.002 sec
     gradient                   ...        0 min,  0.002 sec
 * total energy  :   -20.7969531 Eh     change       -0.8422208E-04 Eh
   gradient norm :     0.0063392 Eh/α   predicted    -0.4869274E-04 ( -42.19%)
   displ. norm   :     0.2519976 α      lambda       -0.2540398E-03
   maximum displ.:     0.2468770 α      in ANC's #1, #11, #6, ...

........................................................................
.............................. CYCLE    4 ..............................
........................................................................
   1    -21.0955777 -0.210956E+02  0.382E-01    0.75       0.0  T
   2    -21.0956227 -0.450608E-04  0.213E-01    0.78       1.0  T
   3    -21.0955098  0.112918E-03  0.158E-01    0.74       1.0  T
   4    -21.0956947 -0.184919E-03  0.287E-02    0.77       1.2  T
   5    -21.0956993 -0.451531E-05  0.109E-02    0.77       3.1  T
   6    -21.0956996 -0.373639E-06  0.394E-03    0.77       8.5  T
   7    -21.0956997 -0.385843E-07  0.147E-03    0.77      22.7  T
   8    -21.0956997 -0.738652E-09  0.599E-04    0.77      55.7  T
   9    -21.0956997 -0.180787E-08  0.207E-04    0.77     161.2  T
  10    -21.0956997 -0.393285E-10  0.544E-05    0.77     613.3  T
  11    -21.0956997 -0.274625E-11  0.221E-05    0.77    1511.0  T
     SCC iter.                  ...        0 min,  0.002 sec
     gradient                   ...        0 min,  0.002 sec
 * total energy  :   -20.7971983 Eh     change       -0.2451836E-03 Eh
   gradient norm :     0.0213493 Eh/α   predicted    -0.1350802E-03 ( -44.91%)
   displ. norm   :     0.8821259 α      lambda       -0.9160121E-03
   maximum displ.:     0.8653842 α      in ANC's #1, #11, #6, ...

........................................................................
.............................. CYCLE    5 ..............................
........................................................................
   1    -21.0644983 -0.210645E+02  0.134E+00    0.59       0.0  T
   2    -21.0654024 -0.904098E-03  0.728E-01    0.67       1.0  T
   3    -21.0646087  0.793730E-03  0.480E-01    0.61       1.0  T
   4    -21.0658233 -0.121463E-02  0.181E-01    0.69       1.0  T
   5    -21.0660972 -0.273847E-03  0.513E-02    0.66       1.0  T
   6    -21.0661118 -0.146707E-04  0.235E-02    0.67       1.4  T
   7    -21.0661138 -0.193361E-05  0.888E-03    0.66       3.8  T
   8    -21.0661141 -0.279692E-06  0.385E-03    0.67       8.7  T
   9    -21.0661141 -0.382439E-07  0.119E-03    0.67      28.1  T
  10    -21.0661141 -0.501195E-08  0.528E-04    0.66      63.1  T
  11    -21.0661141 -0.687105E-09  0.158E-04    0.66     211.5  T
  12    -21.0661141 -0.406750E-10  0.478E-05    0.66     698.0  T
     SCC iter.                  ...        0 min,  0.003 sec
     gradient                   ...        0 min,  0.002 sec
 * total energy  :   -20.7964411 Eh     change        0.7571257E-03 Eh
   gradient norm :     0.0898937 Eh/α   predicted    -0.8144381E-03 (-207.57%)
   displ. norm   :     0.4101187 α      lambda       -0.2919457E-02
   maximum displ.:     0.4005430 α      in ANC's #1, #4, #11, ...

........................................................................
.............................. CYCLE    6 ..............................
........................................................................
   1    -21.0885588 -0.210886E+02  0.638E-01    0.78       0.0  T
   2    -21.0888140 -0.255177E-03  0.346E-01    0.72       1.0  T
   3    -21.0886756  0.138375E-03  0.223E-01    0.76       1.0  T
   4    -21.0889234 -0.247774E-03  0.820E-02    0.71       1.0  T
   5    -21.0889774 -0.540282E-04  0.194E-02    0.73       1.7  T
   6    -21.0889791 -0.170180E-05  0.937E-03    0.72       3.6  T
   7    -21.0889793 -0.216026E-06  0.276E-03    0.73      12.1  T
   8    -21.0889794 -0.359149E-07  0.116E-03    0.72      28.7  T
   9    -21.0889794 -0.132832E-08  0.454E-04    0.72      73.4  T
  10    -21.0889794 -0.104770E-08  0.130E-04    0.72     255.9  T
  11    -21.0889794 -0.176250E-10  0.417E-05    0.72     799.1  T
     SCC iter.                  ...        0 min,  0.002 sec
     gradient                   ...        0 min,  0.002 sec
 * total energy  :   -20.7977924 Eh     change       -0.1351276E-02 Eh
   gradient norm :     0.0440100 Eh/α   predicted    -0.1705248E-02 (  26.20%)
   displ. norm   :     0.0753778 α      lambda       -0.3742583E-03
   maximum displ.:     0.0696778 α      in ANC's #1, #2, #11, ...

........................................................................
.............................. CYCLE    7 ..............................
........................................................................
   1    -21.0897673 -0.210898E+02  0.139E-01    0.73       0.0  T
   2    -21.0897685 -0.112435E-05  0.802E-02    0.71       1.0  T
   3    -21.0897477  0.207828E-04  0.696E-02    0.73       1.0  T
   4    -21.0897864 -0.387604E-04  0.744E-03    0.72       4.5  T
   5    -21.0897865 -0.547348E-07  0.394E-03    0.72       8.5  T
   6    -21.0897865 -0.566728E-07  0.137E-03    0.72      24.4  T
   7    -21.0897865 -0.377268E-08  0.622E-04    0.72      53.6  T
   8    -21.0897865 -0.573884E-09  0.220E-04    0.72     151.4  T
   9    -21.0897866 -0.210452E-09  0.649E-05    0.72     513.3  T
     SCC iter.                  ...        0 min,  0.002 sec
     gradient                   ...        0 min,  0.002 sec
 * total energy  :   -20.7981580 Eh     change       -0.3656458E-03 Eh
   gradient norm :     0.0422291 Eh/α   predicted    -0.1881921E-03 ( -48.53%)
   displ. norm   :     0.7941477 α      lambda       -0.4322656E-02
   maximum displ.:     0.7512881 α      in ANC's #1, #11, #2, ...

........................................................................
.............................. CYCLE    8 ..............................
........................................................................
   1    -21.0778092 -0.210778E+02  0.149E+00    0.75       0.0  T
   2    -21.0763484  0.146080E-02  0.100E+00    0.54       1.0  T
   3    -21.0775534 -0.120491E-02  0.762E-01    0.80       1.0  T
   4    -21.0814115 -0.385815E-02  0.836E-02    0.68       1.0  T
   5    -21.0814227 -0.111468E-04  0.529E-02    0.68       1.0  T
   6    -21.0814356 -0.129715E-04  0.138E-02    0.68       2.4  T
   7    -21.0814358 -0.187924E-06  0.668E-03    0.68       5.0  T
   8    -21.0814358 -0.499433E-08  0.341E-03    0.68       9.8  T
   9    -21.0814359 -0.589730E-07  0.718E-04    0.68      46.4  T
  10    -21.0814359 -0.721997E-09  0.351E-04    0.68      95.1  T
  11    -21.0814359 -0.644427E-10  0.108E-04    0.68     309.8  T
  12    -21.0814359 -0.647127E-10  0.409E-05    0.68     815.4  T
     SCC iter.                  ...        0 min,  0.002 sec
     gradient                   ...        0 min,  0.002 sec
 * total energy  :   -20.8017459 Eh     change       -0.3587871E-02 Eh
   gradient norm :     0.0531147 Eh/α   predicted    -0.3524449E-02 (  -1.77%)
   displ. norm   :     0.5001118 α      lambda       -0.4216062E-02
   maximum displ.:     0.4445855 α      in ANC's #1, #11, #12, ...

........................................................................
.............................. CYCLE    9 ..............................
........................................................................
   1    -21.0775567 -0.210776E+02  0.982E-01    0.78       0.0  T
   2    -21.0763198  0.123689E-02  0.737E-01    0.59       1.0  T
   3    -21.0784023 -0.208248E-02  0.472E-01    0.77       1.0  T
   4    -21.0796524 -0.125017E-02  0.623E-02    0.71       1.0  T
   5    -21.0796757 -0.232207E-04  0.246E-02    0.71       1.4  T
   6    -21.0796761 -0.482302E-06  0.944E-03    0.71       3.5  T
   7    -21.0796766 -0.476089E-06  0.300E-03    0.71      11.1  T
   8    -21.0796766 -0.112087E-07  0.118E-03    0.71      28.1  T
   9    -21.0796766 -0.290688E-08  0.356E-04    0.71      93.6  T
  10    -21.0796766 -0.452889E-09  0.124E-04    0.71     268.9  T
  11    -21.0796766 -0.216787E-10  0.261E-05    0.71    1278.3  T
     SCC iter.                  ...        0 min,  0.002 sec
     gradient                   ...        0 min,  0.002 sec
 * total energy  :   -20.8048041 Eh     change       -0.3058195E-02 Eh
   gradient norm :     0.0516911 Eh/α   predicted    -0.2635286E-02 ( -13.83%)
   displ. norm   :     0.4238133 α      lambda       -0.4452959E-02
   maximum displ.:     0.3430982 α      in ANC's #1, #4, #12, ...

........................................................................
.............................. CYCLE   10 ..............................
........................................................................
   1    -21.0817827 -0.210818E+02  0.799E-01    0.85       0.0  T
   2    -21.0815890  0.193718E-03  0.521E-01    0.70       1.0  T
   3    -21.0818994 -0.310369E-03  0.393E-01    0.84       1.0  T
   4    -21.0828842 -0.984819E-03  0.597E-02    0.78       1.0  T
   5    -21.0829023 -0.180525E-04  0.198E-02    0.78       1.7  T
   6    -21.0829026 -0.306058E-06  0.111E-02    0.78       3.0  T
   7    -21.0829029 -0.317714E-06  0.242E-03    0.78      13.8  T
   8    -21.0829029 -0.141877E-07  0.130E-03    0.78      25.7  T
   9    -21.0829029 -0.129031E-08  0.474E-04    0.78      70.3  T
  10    -21.0829029 -0.918270E-09  0.237E-04    0.78     140.8  T
  11    -21.0829029 -0.116440E-09  0.634E-05    0.78     526.1  T
     SCC iter.                  ...        0 min,  0.002 sec
     gradient                   ...        0 min,  0.002 sec
 * total energy  :   -20.8074618 Eh     change       -0.2657702E-02 Eh
   gradient norm :     0.0235787 Eh/α   predicted    -0.2626394E-02 (  -1.18%)
   displ. norm   :     0.7476429 α      lambda       -0.3944588E-02
   maximum displ.:     0.7118447 α      in ANC's #1, #12, #8, ...

........................................................................
.............................. CYCLE   11 ..............................
........................................................................
   1    -21.0350886 -0.210351E+02  0.133E+00    0.65       0.0  T
   2    -21.0309966  0.409203E-02  0.104E+00    0.50       1.0  T
   3    -21.0335469 -0.255037E-02  0.819E-01    0.78       1.0  T
   4    -21.0382575 -0.471054E-02  0.119E-01    0.64       1.0  T
   5    -21.0383010 -0.435450E-04  0.517E-02    0.66       1.0  T
   6    -21.0383132 -0.122202E-04  0.268E-02    0.66       1.2  T
   7    -21.0383156 -0.236391E-05  0.922E-03    0.66       3.6  T
   8    -21.0383163 -0.737354E-06  0.306E-03    0.66      10.9  T
   9    -21.0383163  0.213106E-08  0.143E-03    0.66      23.3  T
  10    -21.0383163 -0.151828E-07  0.441E-04    0.66      75.7  T
  11    -21.0383163 -0.336051E-09  0.286E-04    0.66     116.6  T
  12    -21.0383163 -0.614737E-09  0.500E-05    0.66     666.0  T
     SCC iter.                  ...        0 min,  0.002 sec
     gradient                   ...        0 min,  0.002 sec
 * total energy  :   -20.8063975 Eh     change        0.1064346E-02 Eh
   gradient norm :     0.0891919 Eh/α   predicted    -0.3074703E-02 (-388.88%)
   displ. norm   :     0.2699305 α      lambda       -0.9438805E-02
   maximum displ.:     0.1385316 α      in ANC's #4, #2, #1, ...

........................................................................
.............................. CYCLE   12 ..............................
........................................................................
   1    -21.0702634 -0.210703E+02  0.106E+00    1.05       0.0  T
   2    -21.0632373  0.702604E-02  0.123E+00    0.58       1.0  T
   3    -21.0771689 -0.139315E-01  0.354E-01    0.85       1.0  T
   4    -21.0775363 -0.367458E-03  0.112E-01    0.79       1.0  T
   5    -21.0775968 -0.604509E-04  0.426E-02    0.79       1.0  T
   6    -21.0776098 -0.129951E-04  0.146E-02    0.80       2.3  T
   7    -21.0776100 -0.270858E-06  0.585E-03    0.80       5.7  T
   8    -21.0776103 -0.276327E-06  0.138E-03    0.80      24.1  T
   9    -21.0776103 -0.992231E-08  0.597E-04    0.80      55.8  T
  10    -21.0776103 -0.107660E-08  0.238E-04    0.80     140.3  T
  11    -21.0776103 -0.191285E-09  0.718E-05    0.80     464.1  T
     SCC iter.                  ...        0 min,  0.002 sec
     gradient                   ...        0 min,  0.002 sec
 * total energy  :   -20.8059120 Eh     change        0.4854445E-03 Eh
   gradient norm :     0.1110342 Eh/α   predicted    -0.5063272E-02 (*******%)
   displ. norm   :     0.3056273 α      lambda       -0.1207344E-01
   maximum displ.:     0.2245406 α      in ANC's #1, #4, #2, ...

........................................................................
.............................. CYCLE   13 ..............................
........................................................................
   1    -21.0717763 -0.210718E+02  0.132E+00    0.59       0.0  T
   2    -21.0692673  0.250895E-02  0.135E+00    1.16       1.0  T
   3    -21.0837603 -0.144929E-01  0.376E-01    0.86       1.0  T
   4    -21.0837600  0.267653E-06  0.153E-01    0.81       1.0  T
   5    -21.0838553 -0.952742E-04  0.350E-02    0.82       1.0  T
   6    -21.0838590 -0.371189E-05  0.183E-02    0.82       1.8  T
   7    -21.0838593 -0.323847E-06  0.817E-03    0.83       4.1  T
   8    -21.0838595 -0.164776E-06  0.299E-03    0.83      11.1  T
   9    -21.0838595 -0.482450E-07  0.129E-03    0.82      25.9  T
  10    -21.0838595 -0.147054E-08  0.662E-04    0.82      50.4  T
  11    -21.0838595 -0.278155E-08  0.149E-04    0.82     224.3  T
  12    -21.0838595 -0.499298E-10  0.403E-05    0.82     827.1  T
     SCC iter.                  ...        0 min,  0.002 sec
     gradient                   ...        0 min,  0.002 sec
 * total energy  :   -20.8091816 Eh     change       -0.3269582E-02 Eh
   gradient norm :     0.0585785 Eh/α   predicted    -0.6600601E-02 ( 101.88%)
   displ. norm   :     0.2355844 α      lambda       -0.4894942E-02
   maximum displ.:     0.1657893 α      in ANC's #1, #6, #2, ...

........................................................................
.............................. CYCLE   14 ..............................
........................................................................
   1    -21.0628829 -0.210629E+02  0.634E-01    0.72       0.0  T
   2    -21.0631417 -0.258832E-03  0.433E-01    0.79       1.0  T
   3    -21.0636922 -0.550478E-03  0.262E-01    0.73       1.0  T
   4    -21.0637782 -0.860433E-04  0.153E-01    0.79       1.0  T
   5    -21.0639840 -0.205816E-03  0.213E-02    0.77       1.6  T
   6    -21.0639853 -0.130092E-05  0.127E-02    0.77       2.6  T
   7    -21.0639858 -0.439716E-06  0.431E-03    0.77       7.7  T
   8    -21.0639859 -0.791336E-07  0.177E-03    0.77      18.8  T
   9    -21.0639859 -0.471102E-08  0.957E-04    0.77      34.8  T
  10    -21.0639859 -0.273510E-08  0.221E-04    0.77     150.7  T
  11    -21.0639859 -0.301377E-10  0.884E-05    0.77     377.2  T
     SCC iter.                  ...        0 min,  0.002 sec
     gradient                   ...        0 min,  0.002 sec
 * total energy  :   -20.8098947 Eh     change       -0.7131422E-03 Eh
   gradient norm :     0.0426424 Eh/α   predicted    -0.2583307E-02 ( 262.24%)
   displ. norm   :     0.2002682 α      lambda       -0.2847840E-02
   maximum displ.:     0.1456729 α      in ANC's #1, #6, #2, ...

........................................................................
.............................. CYCLE   15 ..............................
........................................................................
   1    -21.0613299 -0.210613E+02  0.644E-01    0.86       0.0  T
   2    -21.0588647  0.246522E-02  0.732E-01    0.64       1.0  T
   3    -21.0636405 -0.477584E-02  0.232E-01    0.79       1.0  T
   4    -21.0636938 -0.533252E-04  0.918E-02    0.77       1.0  T
   5    -21.0637577 -0.639057E-04  0.225E-02    0.78       1.5  T
   6    -21.0637594 -0.161211E-05  0.103E-02    0.77       3.2  T
   7    -21.0637595 -0.121374E-06  0.401E-03    0.78       8.3  T
   8    -21.0637595 -0.699499E-07  0.178E-03    0.78      18.7  T
   9    -21.0637595 -0.975131E-09  0.747E-04    0.78      44.6  T
  10    -21.0637595 -0.362310E-08  0.274E-04    0.78     121.8  T
  11    -21.0637595 -0.793072E-10  0.129E-04    0.78     258.9  T
     SCC iter.                  ...        0 min,  0.002 sec
     gradient                   ...        0 min,  0.002 sec
 * total energy  :   -20.8112340 Eh     change       -0.1339276E-02 Eh
   gradient norm :     0.0299653 Eh/α   predicted    -0.1481030E-02 (  10.58%)
   displ. norm   :     0.0555894 α      lambda       -0.7437128E-03
   maximum displ.:     0.0283301 α      in ANC's #1, #12, #5, ...

........................................................................
.............................. CYCLE   16 ..............................
........................................................................
   1    -21.0733621 -0.210734E+02  0.162E-01    0.83       0.0  T
   2    -21.0733908 -0.286499E-04  0.901E-02    0.81       1.0  T
   3    -21.0733896  0.119139E-05  0.624E-02    0.83       1.0  T
   4    -21.0734000 -0.103957E-04  0.358E-02    0.81       1.0  T
   5    -21.0734101 -0.101197E-04  0.618E-03    0.81       5.4  T
   6    -21.0734103 -0.219525E-06  0.342E-03    0.81       9.7  T
   7    -21.0734104 -0.299211E-07  0.977E-04    0.81      34.1  T
   8    -21.0734104 -0.359438E-08  0.352E-04    0.81      94.7  T
   9    -21.0734104 -0.630962E-11  0.154E-04    0.81     216.0  T
  10    -21.0734104 -0.109772E-09  0.490E-05    0.81     680.7  T
     SCC iter.                  ...        0 min,  0.002 sec
     gradient                   ...        0 min,  0.002 sec
 * total energy  :   -20.8116172 Eh     change       -0.3831799E-03 Eh
   gradient norm :     0.0170093 Eh/α   predicted    -0.3730067E-03 (  -2.65%)
   displ. norm   :     0.1832300 α      lambda       -0.7082194E-03
   maximum displ.:     0.1304890 α      in ANC's #1, #12, #8, ...

........................................................................
.............................. CYCLE   17 ..............................
........................................................................
   1    -21.0695926 -0.210696E+02  0.364E-01    0.81       0.0  T
   2    -21.0696084 -0.158600E-04  0.208E-01    0.83       1.0  T
   3    -21.0693322  0.276257E-03  0.190E-01    0.79       1.0  T
   4    -21.0696743 -0.342119E-03  0.207E-02    0.83       1.6  T
   5    -21.0696766 -0.233602E-05  0.988E-03    0.82       3.4  T
   6    -21.0696769 -0.238138E-06  0.427E-03    0.82       7.8  T
   7    -21.0696770 -0.723457E-07  0.109E-03    0.82      30.6  T
   8    -21.0696770 -0.283836E-08  0.546E-04    0.82      61.0  T
   9    -21.0696770 -0.237268E-09  0.166E-04    0.82     200.6  T
  10    -21.0696770 -0.809166E-10  0.952E-05    0.82     350.0  T
  11    -21.0696770 -0.165272E-10  0.214E-05    0.82    1556.5  T
     SCC iter.                  ...        0 min,  0.002 sec
     gradient                   ...        0 min,  0.002 sec
 * total energy  :   -20.8121495 Eh     change       -0.5322902E-03 Eh
   gradient norm :     0.0155753 Eh/α   predicted    -0.3659973E-03 ( -31.24%)
   displ. norm   :     0.4077749 α      lambda       -0.1158734E-02
   maximum displ.:     0.3222890 α      in ANC's #1, #12, #8, ...

........................................................................
.............................. CYCLE   18 ..............................
........................................................................
   1    -21.0555902 -0.210556E+02  0.842E-01    0.80       0.0  T
   2    -21.0550272  0.563046E-03  0.552E-01    0.71       1.0  T
   3    -21.0541069  0.920272E-03  0.532E-01    0.88       1.0  T
   4    -21.0563623 -0.225539E-02  0.471E-02    0.78       1.0  T
   5    -21.0563698 -0.749745E-05  0.285E-02    0.79       1.2  T
   6    -21.0563735 -0.371178E-05  0.115E-02    0.79       2.9  T
   7    -21.0563736 -0.115425E-06  0.305E-03    0.79      10.9  T
   8    -21.0563736 -0.422419E-07  0.146E-03    0.79      22.9  T
   9    -21.0563736 -0.551817E-08  0.304E-04    0.79     109.6  T
  10    -21.0563736 -0.237279E-09  0.115E-04    0.79     290.5  T
  11    -21.0563736  0.200338E-10  0.658E-05    0.79     506.3  T
     SCC iter.                  ...        0 min,  0.002 sec
     gradient                   ...        0 min,  0.002 sec
 * total energy  :   -20.8125588 Eh     change       -0.4093532E-03 Eh
   gradient norm :     0.0384483 Eh/α   predicted    -0.6757160E-03 (  65.07%)
   displ. norm   :     0.0423333 α      lambda       -0.9302344E-03
   maximum displ.:     0.0176443 α      in ANC's #12, #4, #10, ...

........................................................................
.............................. CYCLE   19 ..............................
........................................................................
   1    -21.0628871 -0.210629E+02  0.180E-01    0.82       0.0  T
   2    -21.0628783  0.879942E-05  0.145E-01    0.77       1.0  T
   3    -21.0630199 -0.141597E-03  0.752E-02    0.81       1.0  T
   4    -21.0630422 -0.223545E-04  0.443E-02    0.79       1.0  T
   5    -21.0630529 -0.106858E-04  0.105E-02    0.80       3.2  T
   6    -21.0630536 -0.681081E-06  0.346E-03    0.80       9.6  T
   7    -21.0630536 -0.119535E-07  0.201E-03    0.80      16.6  T
   8    -21.0630536 -0.134864E-07  0.703E-04    0.80      47.4  T
   9    -21.0630536 -0.178467E-08  0.334E-04    0.80      99.8  T
  10    -21.0630536 -0.153438E-09  0.585E-05    0.80     569.4  T
  11    -21.0630536 -0.469669E-11  0.213E-05    0.80    1563.9  T
     SCC iter.                  ...        0 min,  0.002 sec
     gradient                   ...        0 min,  0.002 sec
 * total energy  :   -20.8130307 Eh     change       -0.4718717E-03 Eh
   gradient norm :     0.0136735 Eh/α   predicted    -0.4659486E-03 (  -1.26%)
   displ. norm   :     0.0993504 α      lambda       -0.3957827E-03
   maximum displ.:     0.0612307 α      in ANC's #1, #12, #2, ...

........................................................................
.............................. CYCLE   20 ..............................
........................................................................
   1    -21.0644527 -0.210645E+02  0.261E-01    0.80       0.0  T
   2    -21.0642909  0.161844E-03  0.208E-01    0.75       1.0  T
   3    -21.0644654 -0.174525E-03  0.146E-01    0.80       1.0  T
   4    -21.0646006 -0.135172E-03  0.211E-02    0.78       1.6  T
   5    -21.0646035 -0.295568E-05  0.938E-03    0.78       3.6  T
   6    -21.0646039 -0.424291E-06  0.395E-03    0.78       8.4  T
   7    -21.0646039 -0.990602E-08  0.864E-04    0.78      38.6  T
   8    -21.0646039 -0.314549E-08  0.306E-04    0.78     108.8  T
   9    -21.0646039 -0.163674E-09  0.815E-05    0.78     409.0  T
  10    -21.0646039 -0.250964E-10  0.360E-05    0.78     926.2  T
     SCC iter.                  ...        0 min,  0.002 sec
     gradient                   ...        0 min,  0.002 sec
 * total energy  :   -20.8133451 Eh     change       -0.3143320E-03 Eh
   gradient norm :     0.0091049 Eh/α   predicted    -0.1998455E-03 ( -36.42%)
   displ. norm   :     0.3228251 α      lambda       -0.7831044E-03
   maximum displ.:     0.2213771 α      in ANC's #1, #12, #10, ...
 * RMSD in coord.:     1.4129188 α      energy gain  -0.2081335E+02 Eh

generating ANC from model Hessian ...
Using Lindh-Hessian (1995)
 Shifting diagonal of input Hessian by   0.000000000000000E+000
 Lowest  eigenvalues of input Hessian
   -0.000000   -0.000000   -0.000000   -0.000000    0.000000    0.000000
    0.016944    0.027434    0.046531    0.057313    0.067320    0.107860
    0.124277    0.176914    0.203431    0.278534    0.334246    0.362515
 Highest eigenvalues
    1.229918    1.459301    1.632510    1.983084    2.185710    2.592020
 

........................................................................
.............................. CYCLE   21 ..............................
........................................................................
   1    -21.0574086 -0.210574E+02  0.785E-01    0.72       0.0  T
   2    -21.0559699  0.143864E-02  0.588E-01    0.62       1.0  T
   3    -21.0558505  0.119448E-03  0.550E-01    0.80       1.0  T
   4    -21.0582699 -0.241945E-02  0.645E-02    0.70       1.0  T
   5    -21.0582963 -0.263759E-04  0.349E-02    0.71       1.0  T
   6    -21.0583040 -0.768394E-05  0.133E-02    0.71       2.5  T
   7    -21.0583041 -0.102873E-06  0.345E-03    0.71       9.7  T
   8    -21.0583042 -0.944292E-07  0.124E-03    0.71      26.8  T
   9    -21.0583042 -0.516727E-08  0.436E-04    0.71      76.4  T
  10    -21.0583042 -0.102357E-08  0.106E-04    0.71     314.3  T
  11    -21.0583042 -0.304610E-10  0.531E-05    0.71     627.4  T
  12    -21.0583042 -0.107789E-10  0.166E-05    0.71    2011.0  T
  13    -21.0583042 -0.223821E-11  0.467E-06    0.71    7130.4  T
     SCC iter.                  ...        0 min,  0.003 sec
     gradient                   ...        0 min,  0.002 sec
 * total energy  :   -20.8138226 Eh     change       -0.4775542E-03 Eh
   gradient norm :     0.0237201 Eh/α   predicted     0.0000000E+00 (-100.00%)
   displ. norm   :     0.1265479 α      lambda       -0.8014209E-03
   maximum displ.:     0.0960070 α      in ANC's #2, #1, #4, ...

........................................................................
.............................. CYCLE   22 ..............................
........................................................................
   1    -21.0609916 -0.210610E+02  0.253E-01    0.70       0.0  T
   2    -21.0608456  0.146076E-03  0.194E-01    0.66       1.0  T
   3    -21.0608396  0.592694E-05  0.170E-01    0.72       1.0  T
   4    -21.0610715 -0.231874E-03  0.411E-02    0.68       1.0  T
   5    -21.0610842 -0.126551E-04  0.953E-03    0.69       3.5  T
   6    -21.0610846 -0.442001E-06  0.418E-03    0.69       8.0  T
   7    -21.0610846 -0.167425E-07  0.169E-03    0.69      19.7  T
   8    -21.0610846 -0.160880E-07  0.504E-04    0.69      66.2  T
   9    -21.0610846 -0.136023E-09  0.108E-04    0.69     308.2  T
  10    -21.0610846 -0.505729E-10  0.471E-05    0.69     708.3  T
     SCC iter.                  ...        0 min,  0.002 sec
     gradient                   ...        0 min,  0.002 sec
 * total energy  :   -20.8142912 Eh     change       -0.4686139E-03 Eh
   gradient norm :     0.0083499 Eh/α   predicted    -0.4071255E-03 ( -13.12%)
   displ. norm   :     0.0930166 α      lambda       -0.3281571E-03
   maximum displ.:     0.0794135 α      in ANC's #2, #6, #3, ...

........................................................................
.............................. CYCLE   23 ..............................
........................................................................
   1    -21.0609869 -0.210610E+02  0.227E-01    0.65       0.0  T
   2    -21.0609835  0.338947E-05  0.135E-01    0.65       1.0  T
   3    -21.0608311  0.152426E-03  0.148E-01    0.68       1.0  T
   4    -21.0609986 -0.167493E-03  0.556E-02    0.65       1.0  T
   5    -21.0610315 -0.329428E-04  0.100E-02    0.66       3.3  T
   6    -21.0610320 -0.508469E-06  0.467E-03    0.66       7.1  T
   7    -21.0610321 -0.653470E-07  0.798E-04    0.66      41.8  T
   8    -21.0610321 -0.898037E-09  0.390E-04    0.66      85.5  T
   9    -21.0610321 -0.346791E-09  0.187E-04    0.66     178.0  T
  10    -21.0610321 -0.158916E-09  0.600E-05    0.66     555.9  T
  11    -21.0610321 -0.148006E-10  0.230E-05    0.66    1448.4  T
     SCC iter.                  ...        0 min,  0.002 sec
     gradient                   ...        0 min,  0.002 sec
 * total energy  :   -20.8145254 Eh     change       -0.2341426E-03 Eh
   gradient norm :     0.0079277 Eh/α   predicted    -0.1654972E-03 ( -29.32%)
   displ. norm   :     0.1165471 α      lambda       -0.2589924E-03
   maximum displ.:     0.0991099 α      in ANC's #2, #6, #5, ...

........................................................................
.............................. CYCLE   24 ..............................
........................................................................
   1    -21.0592748 -0.210593E+02  0.265E-01    0.58       0.0  T
   2    -21.0593353 -0.605898E-04  0.149E-01    0.61       1.0  T
   3    -21.0593161  0.192175E-04  0.790E-02    0.59       1.0  T
   4    -21.0592843  0.318687E-04  0.826E-02    0.62       1.0  T
   5    -21.0593537 -0.694191E-04  0.140E-02    0.61       2.4  T
   6    -21.0593552 -0.154972E-05  0.715E-03    0.61       4.7  T
   7    -21.0593555 -0.268645E-06  0.171E-03    0.61      19.5  T
   8    -21.0593555 -0.999833E-08  0.397E-04    0.61      84.0  T
   9    -21.0593555 -0.197975E-09  0.231E-04    0.61     144.2  T
  10    -21.0593555 -0.153062E-09  0.575E-05    0.61     579.7  T
  11    -21.0593555 -0.142535E-10  0.249E-05    0.61    1336.3  T
     SCC iter.                  ...        0 min,  0.002 sec
     gradient                   ...        0 min,  0.002 sec
 * total energy  :   -20.8147051 Eh     change       -0.1797704E-03 Eh
   gradient norm :     0.0046148 Eh/α   predicted    -0.1312556E-03 ( -26.99%)
   displ. norm   :     0.1169912 α      lambda       -0.1847860E-03
   maximum displ.:     0.0783548 α      in ANC's #2, #1, #5, ...

........................................................................
.............................. CYCLE   25 ..............................
........................................................................
   1    -21.0581302 -0.210581E+02  0.277E-01    0.53       0.0  T
   2    -21.0581332 -0.297295E-05  0.161E-01    0.53       1.0  T
   3    -21.0577623  0.370878E-03  0.221E-01    0.57       1.0  T
   4    -21.0581650 -0.402771E-03  0.708E-02    0.53       1.0  T
   5    -21.0582245 -0.594257E-04  0.137E-02    0.54       2.4  T
   6    -21.0582254 -0.903445E-06  0.681E-03    0.54       4.9  T
   7    -21.0582256 -0.214943E-06  0.214E-03    0.54      15.6  T
   8    -21.0582256 -0.301282E-07  0.489E-04    0.54      68.1  T
   9    -21.0582256 -0.555843E-09  0.285E-04    0.54     117.1  T
  10    -21.0582256 -0.115620E-09  0.131E-04    0.54     255.2  T
  11    -21.0582256 -0.132616E-09  0.487E-05    0.54     684.1  T
     SCC iter.                  ...        0 min,  0.002 sec
     gradient                   ...        0 min,  0.002 sec
 * total energy  :   -20.8148521 Eh     change       -0.1469763E-03 Eh
   gradient norm :     0.0058923 Eh/α   predicted    -0.9365741E-04 ( -36.28%)
   displ. norm   :     0.2680481 α      lambda       -0.3803530E-03
   maximum displ.:     0.1530020 α      in ANC's #1, #2, #5, ...

........................................................................
.............................. CYCLE   26 ..............................
........................................................................
   1    -21.0537895 -0.210538E+02  0.637E-01    0.36       0.0  T
   2    -21.0527656  0.102391E-02  0.447E-01    0.34       1.0  T
   3    -21.0486987  0.406692E-02  0.734E-01    0.50       1.0  T
   4    -21.0542542 -0.555553E-02  0.100E-01    0.37       1.0  T
   5    -21.0543001 -0.459045E-04  0.453E-02    0.39       1.0  T
   6    -21.0543170 -0.168750E-04  0.159E-02    0.38       2.1  T
   7    -21.0543178 -0.804602E-06  0.464E-03    0.38       7.2  T
   8    -21.0543180 -0.175176E-06  0.161E-03    0.38      20.7  T
   9    -21.0543180 -0.185702E-07  0.744E-04    0.38      44.8  T
  10    -21.0543180 -0.250119E-08  0.366E-04    0.38      91.2  T
  11    -21.0543180 -0.136236E-08  0.939E-05    0.38     354.8  T
  12    -21.0543180 -0.448708E-10  0.398E-05    0.38     836.7  T
     SCC iter.                  ...        0 min,  0.002 sec
     gradient                   ...        0 min,  0.002 sec
 * total energy  :   -20.8152292 Eh     change       -0.3771342E-03 Eh
   gradient norm :     0.0155234 Eh/α   predicted    -0.2038412E-03 ( -45.95%)
   displ. norm   :     0.2487259 α      lambda       -0.5038395E-03
   maximum displ.:     0.1465195 α      in ANC's #1, #2, #5, ...

........................................................................
.............................. CYCLE   27 ..............................
........................................................................
   1    -21.0494289 -0.210494E+02  0.588E-01    0.22       0.0  T
   2    -21.0483148  0.111410E-02  0.427E-01    0.21       1.0  T
   3    -21.0414067  0.690812E-02  0.868E-01    0.38       1.0  T
   4    -21.0497737 -0.836697E-02  0.120E-01    0.24       1.0  T
   5    -21.0498079 -0.342411E-04  0.670E-02    0.25       1.0  T
   6    -21.0498508 -0.428598E-04  0.177E-02    0.25       1.9  T
   7    -21.0498513 -0.509074E-06  0.920E-03    0.24       3.6  T
   8    -21.0498520 -0.690010E-06  0.163E-03    0.24      20.4  T
   9    -21.0498520 -0.129155E-07  0.834E-04    0.24      40.0  T
  10    -21.0498520 -0.218040E-08  0.343E-04    0.24      97.1  T
  11    -21.0498520 -0.279766E-09  0.110E-04    0.24     301.7  T
  12    -21.0498520 -0.196145E-10  0.698E-05    0.24     477.5  T
     SCC iter.                  ...        0 min,  0.002 sec
     gradient                   ...        0 min,  0.002 sec
 * total energy  :   -20.8158927 Eh     change       -0.6634999E-03 Eh
   gradient norm :     0.0241157 Eh/α   predicted    -0.2675026E-03 ( -59.68%)
   displ. norm   :     0.3670148 α      lambda       -0.1367836E-02
   maximum displ.:     0.2033508 α      in ANC's #1, #2, #5, ...

........................................................................
.............................. CYCLE   28 ..............................
........................................................................
   1    -21.0030958 -0.210031E+02  0.198E+00    0.04       0.0  T
   2    -20.9394025  0.636933E-01  0.302E+00    1.62       1.0  T
   3    -21.0181362 -0.787337E-01  0.144E+00    0.47       1.0  T
   4    -21.0399229 -0.217867E-01  0.512E-01    0.12       1.0  T
   5    -21.0324830  0.744000E-02  0.944E-01    0.24       1.0  T
   6    -21.0416362 -0.915320E-02  0.251E-01    0.11       1.0  T
   7    -21.0412634  0.372773E-03  0.313E-01    0.15       1.0  T
   8    -21.0423094 -0.104604E-02  0.893E-02    0.13       1.0  T
   9    -21.0422654  0.440118E-04  0.112E-01    0.12       1.0  T
  10    -21.0423514 -0.860157E-04  0.705E-02    0.12       1.0  T
  11    -21.0423731 -0.216597E-04  0.618E-02    0.13       1.0  T
  12    -21.0424078 -0.346910E-04  0.304E-02    0.13       1.1  T
  13    -21.0424176 -0.981937E-05  0.932E-03    0.12       3.6  T
  14    -21.0424181 -0.495828E-06  0.671E-03    0.12       5.0  T
  15    -21.0424186 -0.529959E-06  0.127E-03    0.12      26.3  T
  16    -21.0424186 -0.164275E-07  0.482E-04    0.12      69.2  T
  17    -21.0424186 -0.283189E-08  0.801E-05    0.12     416.3  T
  18    -21.0424186 -0.741807E-10  0.173E-05    0.12    1931.1  T
     SCC iter.                  ...        0 min,  0.004 sec
     gradient                   ...        0 min,  0.002 sec
 * total energy  :   -20.8181244 Eh     change       -0.2231616E-02 Eh
   gradient norm :     0.0484921 Eh/α   predicted    -0.7760383E-03 ( -65.23%)
   displ. norm   :     0.4906820 α      lambda       -0.6117894E-02
   maximum displ.:     0.2365916 α      in ANC's #1, #5, #6, ...

........................................................................
.............................. CYCLE   29 ..............................
........................................................................
   1    -20.7751053 -0.207751E+02  0.466E+00    0.19       0.0  T
   2    -20.7344818  0.406235E-01  0.581E+00    1.84       1.0  T
   3    -20.9367851 -0.202303E+00  0.308E+00    1.85       1.0  T
   4    -20.9772217 -0.404366E-01  0.235E+00    0.95       1.0  T
   5    -21.0347876 -0.575659E-01  0.103E+00    0.24       1.0  T
   6    -21.0321304  0.265726E-02  0.110E+00    0.25       1.0  T
   7    -20.5421200  0.490010E+00  0.628E+00    0.30       1.0  T
   8    -21.0404988 -0.498379E+00  0.466E-01    0.17       1.0  T
   9    -21.0215875  0.189113E-01  0.125E+00    0.11       1.0  T
  10    -21.0316390 -0.100515E-01  0.866E-01    0.12       1.0  T
  11    -21.0362919 -0.465288E-02  0.602E-01    0.12       1.0  T
  12    -21.0406803 -0.438842E-02  0.126E-01    0.14       1.0  T
  13    -21.0408419 -0.161581E-03  0.518E-02    0.13       1.0  T
  14    -21.0408362  0.568367E-05  0.523E-02    0.13       1.0  T
  15    -21.0408696 -0.334382E-04  0.136E-02    0.13       2.4  T
  16    -21.0408719 -0.227393E-05  0.390E-03    0.14       8.6  T
  17    -21.0408721 -0.145044E-06  0.838E-04    0.14      39.8  T
  18    -21.0408720  0.214471E-07  0.151E-03    0.14      22.0  T
  19    -21.0408721 -0.273524E-07  0.373E-04    0.13      89.3  T
  20    -21.0408721 -0.144479E-08  0.110E-04    0.13     302.2  T
  21    -21.0408721 -0.146169E-09  0.105E-05    0.13    3184.3  T
     SCC iter.                  ...        0 min,  0.004 sec
     gradient                   ...        0 min,  0.002 sec
 * total energy  :   -20.8276371 Eh     change       -0.9512741E-02 Eh
   gradient norm :     0.0901262 Eh/α   predicted    -0.3795448E-02 ( -60.10%)
   displ. norm   :     0.4824624 α      lambda       -0.1835659E-01
   maximum displ.:     0.2304188 α      in ANC's #4, #1, #6, ...

........................................................................
.............................. CYCLE   30 ..............................
........................................................................
   1    -20.8631687 -0.208632E+02  0.395E+00    0.31       0.0  T
   2    -20.7676963  0.954724E-01  0.549E+00    2.08       1.0  T
   3    -20.9571595 -0.189463E+00  0.291E+00    1.60       1.0  T
   4    -21.0064991 -0.493396E-01  0.203E+00    0.82       1.0  T
   5    -21.0563687 -0.498696E-01  0.495E-01    0.37       1.0  T
   6    -21.0356003  0.207684E-01  0.128E+00    0.54       1.0  T
   7    -21.0246824  0.109179E-01  0.156E+00    0.29       1.0  T
   8    -21.0560346 -0.313522E-01  0.239E-01    0.34       1.0  T
   9    -21.0563869 -0.352256E-03  0.165E-01    0.34       1.0  T
  10    -21.0565823 -0.195389E-03  0.114E-01    0.36       1.0  T
  11    -21.0567455 -0.163279E-03  0.142E-02    0.35       2.4  T
  12    -21.0567472 -0.162597E-05  0.921E-03    0.35       3.6  T
  13    -21.0567464  0.760535E-06  0.116E-02    0.35       2.9  T
  14    -21.0567482 -0.175561E-05  0.147E-03    0.35      22.6  T
  15    -21.0567480  0.130526E-06  0.347E-03    0.35       9.6  T
  16    -21.0567482 -0.149906E-06  0.679E-04    0.35      49.1  T
  17    -21.0567482 -0.300371E-08  0.477E-04    0.35      69.8  T
  18    -21.0567482 -0.291508E-08  0.399E-05    0.35     834.6  T
  19    -21.0567482 -0.199094E-10  0.695E-06    0.35    4797.4  T
     SCC iter.                  ...        0 min,  0.004 sec
     gradient                   ...        0 min,  0.002 sec
 * total energy  :   -20.8451288 Eh     change       -0.1749173E-01 Eh
   gradient norm :     0.0911882 Eh/α   predicted    -0.1131473E-01 ( -35.31%)
   displ. norm   :     0.7459432 α      lambda       -0.3732813E-01
   maximum displ.:     0.3946195 α      in ANC's #9, #4, #3, ...

........................................................................
.............................. CYCLE   31 ..............................
........................................................................
   1    -20.9465822 -0.209466E+02  0.371E+00    0.56       0.0  T
   2    -20.8270125  0.119570E+00  0.514E+00    1.90       1.0  T
   3    -21.0092969 -0.182284E+00  0.264E+00    1.11       1.0  T
   4    -21.0869878 -0.776909E-01  0.888E-01    0.51       1.0  T
   5    -21.0898829 -0.289515E-02  0.479E-01    0.54       1.0  T
   6    -21.0897187  0.164158E-03  0.314E-01    0.50       1.0  T
   7    -21.0902683 -0.549558E-03  0.206E-01    0.53       1.0  T
   8    -21.0906570 -0.388658E-03  0.113E-01    0.51       1.0  T
   9    -21.0908088 -0.151822E-03  0.429E-02    0.52       1.0  T
  10    -21.0908214 -0.126223E-04  0.282E-02    0.52       1.2  T
  11    -21.0908303 -0.887812E-05  0.112E-02    0.52       3.0  T
  12    -21.0908319 -0.161669E-05  0.171E-03    0.52      19.4  T
  13    -21.0908319  0.156347E-07  0.194E-03    0.52      17.2  T
  14    -21.0908319 -0.493777E-07  0.217E-04    0.52     153.4  T
  15    -21.0908319  0.201007E-08  0.449E-04    0.52      74.3  T
  16    -21.0908319 -0.264811E-08  0.452E-05    0.52     738.3  T
     SCC iter.                  ...        0 min,  0.003 sec
     gradient                   ...        0 min,  0.002 sec
 * total energy  :   -20.8678417 Eh     change       -0.2271282E-01 Eh
   gradient norm :     0.1635992 Eh/α   predicted    -0.2904933E-01 (  27.90%)
   displ. norm   :     0.7657374 α      lambda       -0.2644810E-01
   maximum displ.:     0.3224501 α      in ANC's #1, #4, #2, ...

........................................................................
.............................. CYCLE   32 ..............................
........................................................................
   1    -20.9869495 -0.209869E+02  0.247E+00    0.39       0.0  T
   2    -20.8334319  0.153518E+00  0.425E+00    2.01       1.0  T
   3    -21.0092069 -0.175775E+00  0.177E+00    0.68       1.0  T
   4    -21.0089671  0.239755E-03  0.170E+00    0.41       1.0  T
   5    -21.0422671 -0.333000E-01  0.680E-01    0.51       1.0  T
   6    -21.0467361 -0.446900E-02  0.196E-01    0.47       1.0  T
   7    -21.0465121  0.223917E-03  0.207E-01    0.47       1.0  T
   8    -21.0469832 -0.471066E-03  0.649E-02    0.45       1.0  T
   9    -21.0470287 -0.455421E-04  0.277E-02    0.46       1.2  T
  10    -21.0470349 -0.618799E-05  0.196E-02    0.45       1.7  T
  11    -21.0470396 -0.466515E-05  0.465E-03    0.46       7.2  T
  12    -21.0470399 -0.275722E-06  0.684E-04    0.45      48.8  T
  13    -21.0470398  0.297672E-07  0.146E-03    0.46      22.8  T
  14    -21.0470399 -0.115439E-07  0.118E-03    0.45      28.3  T
  15    -21.0470399 -0.180374E-07  0.294E-04    0.45     113.4  T
  16    -21.0470399 -0.118652E-08  0.856E-06    0.45    3894.4  T
     SCC iter.                  ...        0 min,  0.003 sec
     gradient                   ...        0 min,  0.002 sec
 * total energy  :   -20.8849034 Eh     change       -0.1706174E-01 Eh
   gradient norm :     0.1152289 Eh/α   predicted    -0.2097802E-01 (  22.95%)
   displ. norm   :     0.5927271 α      lambda       -0.3889823E-01
   maximum displ.:     0.2837266 α      in ANC's #3, #10, #8, ...

........................................................................
.............................. CYCLE   33 ..............................
........................................................................
   1    -20.7431215 -0.207431E+02  0.475E+00    0.29       0.0  T
   2    -20.5893265  0.153795E+00  0.696E+00    1.93       1.0  T
   3    -20.9034208 -0.314094E+00  0.365E+00    1.32       1.0  T
   4    -21.0307483 -0.127328E+00  0.184E+00    0.63       1.0  T
   5    -21.0530956 -0.223473E-01  0.108E+00    0.50       1.0  T
   6    -21.0419211  0.111745E-01  0.123E+00    0.49       1.0  T
   7    -21.0113420  0.305791E-01  0.202E+00    0.32       1.0  T
   8    -21.0373556 -0.260137E-01  0.133E+00    0.33       1.0  T
   9    -21.0589109 -0.215552E-01  0.298E-01    0.36       1.0  T
  10    -21.0599994 -0.108850E-02  0.858E-02    0.37       1.0  T
  11    -21.0600805 -0.811110E-04  0.365E-02    0.37       1.0  T
  12    -21.0600945 -0.140246E-04  0.678E-03    0.37       4.9  T
  13    -21.0600935  0.989237E-06  0.111E-02    0.37       3.0  T
  14    -21.0600949 -0.141035E-05  0.352E-03    0.37       9.5  T
  15    -21.0600949  0.624624E-07  0.370E-03    0.37       9.0  T
  16    -21.0600950 -0.166229E-06  0.369E-04    0.37      90.4  T
  17    -21.0600950 -0.724899E-09  0.838E-05    0.37     397.6  T
  18    -21.0600950 -0.936105E-10  0.130E-05    0.37    2568.4  T
     SCC iter.                  ...        0 min,  0.004 sec
     gradient                   ...        0 min,  0.002 sec
 * total energy  :   -20.8900529 Eh     change       -0.5149547E-02 Eh
   gradient norm :     0.1781661 Eh/α   predicted    -0.2628210E-01 ( 410.38%)
   displ. norm   :     0.5149953 α      lambda       -0.3844533E-01
   maximum displ.:     0.2660327 α      in ANC's #3, #5, #6, ...

........................................................................
.............................. CYCLE   34 ..............................
........................................................................
   1    -20.9184804 -0.209185E+02  0.333E+00    0.94       0.0  T
   2    -19.3308593  0.158762E+01  0.103E+01    0.58       1.0  T
   3    -21.0288097 -0.169795E+01  0.216E+00    0.40       1.0  T
   4    -21.0636513 -0.348416E-01  0.640E-01    0.41       1.0  T
   5    -21.0562339  0.741734E-02  0.930E-01    0.35       1.0  T
   6    -21.0635265 -0.729259E-02  0.290E-01    0.35       1.0  T
   7    -21.0639162 -0.389699E-03  0.199E-01    0.35       1.0  T
   8    -21.0641663 -0.250035E-03  0.900E-02    0.35       1.0  T
   9    -21.0641930 -0.267189E-04  0.192E-02    0.36       1.7  T
  10    -21.0641939 -0.889554E-06  0.911E-03    0.36       3.7  T
  11    -21.0641936  0.237940E-06  0.587E-03    0.36       5.7  T
  12    -21.0641940 -0.373311E-06  0.943E-04    0.36      35.3  T
  13    -21.0641940  0.111018E-08  0.643E-04    0.36      51.8  T
  14    -21.0641940  0.821359E-08  0.113E-03    0.36      29.6  T
  15    -21.0641940 -0.110388E-07  0.391E-04    0.36      85.3  T
  16    -21.0641940 -0.142657E-08  0.347E-05    0.36     960.3  T
  17    -21.0641940 -0.819256E-11  0.817E-06    0.36    4080.4  T
     SCC iter.                  ...        0 min,  0.004 sec
     gradient                   ...        0 min,  0.002 sec
 * total energy  :   -20.9130515 Eh     change       -0.2299851E-01 Eh
   gradient norm :     0.1373597 Eh/α   predicted    -0.2432091E-01 (   5.75%)
   displ. norm   :     0.6178217 α      lambda       -0.3055890E-01
   maximum displ.:     0.3537532 α      in ANC's #1, #3, #4, ...

........................................................................
.............................. CYCLE   35 ..............................
........................................................................
   1    -21.0229268 -0.210229E+02  0.181E+00    0.30       0.0  T
   2    -21.0209061  0.202061E-02  0.150E+00    0.31       1.0  T
   3    -21.0299159 -0.900980E-02  0.101E+00    0.28       1.0  T
   4    -20.9652330  0.646830E-01  0.226E+00    0.57       1.0  T
   5    -21.0386230 -0.733901E-01  0.277E-01    0.32       1.0  T
   6    -21.0393113 -0.688259E-03  0.858E-02    0.31       1.0  T
   7    -21.0393437 -0.324353E-04  0.497E-02    0.31       1.0  T
   8    -21.0393379  0.587227E-05  0.298E-02    0.30       1.1  T
   9    -21.0393492 -0.113477E-04  0.134E-02    0.30       2.5  T
  10    -21.0393508 -0.155559E-05  0.588E-03    0.30       5.7  T
  11    -21.0393511 -0.301232E-06  0.782E-04    0.30      42.6  T
  12    -21.0393511  0.109490E-07  0.103E-03    0.30      32.5  T
  13    -21.0393511 -0.120593E-07  0.122E-04    0.30     272.2  T
  14    -21.0393511  0.131574E-08  0.317E-04    0.30     105.2  T
  15    -21.0393511 -0.135403E-08  0.451E-05    0.30     739.3  T
     SCC iter.                  ...        0 min,  0.003 sec
     gradient                   ...        0 min,  0.002 sec
 * total energy  :   -20.9180138 Eh     change       -0.4962396E-02 Eh
   gradient norm :     0.1407732 Eh/α   predicted    -0.2111167E-01 ( 325.43%)
   displ. norm   :     0.4269204 α      lambda       -0.2715686E-01
   maximum displ.:     0.2460415 α      in ANC's #3, #2, #6, ...

........................................................................
.............................. CYCLE   36 ..............................
........................................................................
   1    -21.0363076 -0.210363E+02  0.139E+00    0.33       0.0  T
   2    -20.7780027  0.258305E+00  0.455E+00    0.36       1.0  T
   3    -21.0126306 -0.234628E+00  0.158E+00    0.42       1.0  T
   4    -21.0357364 -0.231058E-01  0.971E-01    0.28       1.0  T
   5    -21.0466613 -0.109249E-01  0.244E-01    0.30       1.0  T
   6    -21.0468480 -0.186733E-03  0.125E-01    0.29       1.0  T
   7    -21.0469245 -0.764560E-04  0.542E-02    0.28       1.0  T
   8    -21.0469212  0.328219E-05  0.395E-02    0.28       1.0  T
   9    -21.0469306 -0.935036E-05  0.108E-02    0.28       3.1  T
  10    -21.0469295  0.105638E-05  0.120E-02    0.28       2.8  T
  11    -21.0469312 -0.171667E-05  0.269E-03    0.28      12.4  T
  12    -21.0469313 -0.586549E-07  0.119E-03    0.28      28.0  T
  13    -21.0469313 -0.107714E-07  0.398E-04    0.28      83.7  T
  14    -21.0469313 -0.110489E-08  0.145E-04    0.28     229.2  T
  15    -21.0469313 -0.231037E-09  0.230E-05    0.28    1451.1  T
     SCC iter.                  ...        0 min,  0.003 sec
     gradient                   ...        0 min,  0.002 sec
 * total energy  :   -20.9371310 Eh     change       -0.1911717E-01 Eh
   gradient norm :     0.0918574 Eh/α   predicted    -0.1605325E-01 ( -16.03%)
   displ. norm   :     0.4067113 α      lambda       -0.2406125E-01
   maximum displ.:     0.2123431 α      in ANC's #12, #3, #11, ...

........................................................................
.............................. CYCLE   37 ..............................
........................................................................
   1    -20.9685538 -0.209686E+02  0.328E+00    0.25       0.0  T
   2    -20.7730037  0.195550E+00  0.544E+00    2.11       1.0  T
   3    -20.9790335 -0.206030E+00  0.295E+00    0.83       1.0  T
   4    -21.0912376 -0.112204E+00  0.717E-01    0.27       1.0  T
   5    -21.0812529  0.998466E-02  0.103E+00    0.31       1.0  T
   6    -21.0315361  0.497168E-01  0.213E+00    0.23       1.0  T
   7    -21.0868623 -0.553262E-01  0.684E-01    0.23       1.0  T
   8    -21.0933205 -0.645821E-02  0.129E-01    0.24       1.0  T
   9    -21.0934038 -0.832299E-04  0.611E-02    0.24       1.0  T
  10    -21.0932804  0.123334E-03  0.106E-01    0.23       1.0  T
  11    -21.0933858 -0.105381E-03  0.534E-02    0.23       1.0  T
  12    -21.0934191 -0.333081E-04  0.122E-02    0.23       2.7  T
  13    -21.0934199 -0.815882E-06  0.815E-03    0.23       4.1  T
  14    -21.0934207 -0.807666E-06  0.200E-03    0.23      16.7  T
  15    -21.0934208 -0.461184E-07  0.794E-04    0.23      42.0  T
  16    -21.0934207  0.626901E-07  0.231E-03    0.23      14.4  T
  17    -21.0934208 -0.698183E-07  0.547E-05    0.23     609.6  T
  18    -21.0934208 -0.234976E-10  0.262E-05    0.23    1270.9  T
     SCC iter.                  ...        0 min,  0.004 sec
     gradient                   ...        0 min,  0.002 sec
 * total energy  :   -20.9465334 Eh     change       -0.9402413E-02 Eh
   gradient norm :     0.1481628 Eh/α   predicted    -0.1402067E-01 (  49.12%)
   displ. norm   :     0.5583064 α      lambda       -0.2078665E-01
   maximum displ.:     0.2660826 α      in ANC's #3, #2, #4, ...

........................................................................
.............................. CYCLE   38 ..............................
........................................................................
   1    -21.0074993 -0.210075E+02  0.229E+00    0.13       0.0  T
   2    -20.7867476  0.220752E+00  0.483E+00    1.83       1.0  T
   3    -20.9742327 -0.187485E+00  0.264E+00    0.53       1.0  T
   4    -21.0350248 -0.607922E-01  0.147E+00    0.17       1.0  T
   5    -21.0463181 -0.112933E-01  0.125E+00    0.24       1.0  T
   6    -21.0578529 -0.115348E-01  0.786E-01    0.21       1.0  T
   7    -21.0616052 -0.375230E-02  0.596E-01    0.15       1.0  T
   8    -21.0600391  0.156607E-02  0.631E-01    0.15       1.0  T
   9    -21.0645530 -0.451386E-02  0.271E-01    0.18       1.0  T
  10    -21.0652492 -0.696197E-03  0.127E-01    0.16       1.0  T
  11    -21.0654535 -0.204294E-03  0.366E-02    0.17       1.0  T
  12    -21.0654698 -0.163049E-04  0.105E-02    0.16       3.2  T
  13    -21.0654707 -0.943232E-06  0.526E-03    0.16       6.3  T
  14    -21.0654710 -0.283593E-06  0.355E-04    0.16      94.0  T
  15    -21.0654710  0.761433E-08  0.757E-04    0.16      44.0  T
  16    -21.0654710 -0.140722E-08  0.717E-04    0.16      46.5  T
  17    -21.0654710 -0.659269E-08  0.123E-04    0.16     270.3  T
  18    -21.0654710 -0.784652E-10  0.989E-05    0.16     337.0  T
     SCC iter.                  ...        0 min,  0.004 sec
     gradient                   ...        0 min,  0.002 sec
 * total energy  :   -20.9615124 Eh     change       -0.1497893E-01 Eh
   gradient norm :     0.0967998 Eh/α   predicted    -0.1363303E-01 (  -8.99%)
   displ. norm   :     0.4880368 α      lambda       -0.1540384E-01
   maximum displ.:     0.2529558 α      in ANC's #1, #11, #3, ...

........................................................................
.............................. CYCLE   39 ..............................
........................................................................
   1    -21.0474179 -0.210474E+02  0.153E+00    0.14       0.0  T
   2    -20.7492382  0.298180E+00  0.513E+00    0.45       1.0  T
   3    -20.9761213 -0.226883E+00  0.261E+00    0.14       1.0  T
   4    -20.9773844 -0.126310E-02  0.254E+00    0.34       1.0  T
   5    -21.0287468 -0.513625E-01  0.165E+00    0.21       1.0  T
   6    -21.0641348 -0.353880E-01  0.469E-01    0.16       1.0  T
   7    -21.0520091  0.121258E-01  0.101E+00    0.14       1.0  T
   8    -21.0657599 -0.137508E-01  0.274E-01    0.15       1.0  T
   9    -21.0663603 -0.600452E-03  0.934E-02    0.14       1.0  T
  10    -21.0661246  0.235744E-03  0.142E-01    0.13       1.0  T
  11    -21.0663398 -0.215146E-03  0.741E-02    0.14       1.0  T
  12    -21.0663888 -0.490226E-04  0.328E-02    0.13       1.0  T
  13    -21.0664028 -0.140292E-04  0.584E-03    0.13       5.7  T
  14    -21.0664033 -0.475831E-06  0.815E-04    0.13      40.9  T
  15    -21.0664033  0.187106E-07  0.131E-03    0.13      25.4  T
  16    -21.0664033 -0.229113E-07  0.262E-05    0.13    1272.1  T
  17    -21.0664033  0.274817E-09  0.141E-04    0.13     236.4  T
     SCC iter.                  ...        0 min,  0.004 sec
     gradient                   ...        0 min,  0.002 sec
 * total energy  :   -20.9714406 Eh     change       -0.9928225E-02 Eh
   gradient norm :     0.0445918 Eh/α   predicted    -0.9536349E-02 (  -3.95%)
   displ. norm   :     0.4941241 α      lambda       -0.9981933E-02
   maximum displ.:     0.2659743 α      in ANC's #3, #11, #12, ...

........................................................................
.............................. CYCLE   40 ..............................
........................................................................
   1    -20.8356431 -0.208356E+02  0.440E+00    0.25       0.0  T
   2    -20.5837839  0.251859E+00  0.683E+00    1.34       1.0  T
   3    -20.8423331 -0.258549E+00  0.408E+00    1.14       1.0  T
   4    -21.0534847 -0.211152E+00  0.840E-01    0.12       1.0  T
   5    -20.9689742  0.845105E-01  0.254E+00    0.22       1.0  T
   6    -20.8633673  0.105607E+00  0.381E+00    0.22       1.0  T
   7    -21.0533390 -0.189972E+00  0.442E-01    0.10       1.0  T
   8    -21.0284131  0.249259E-01  0.138E+00    0.09       1.0  T
   9    -21.0354019 -0.698884E-02  0.118E+00    0.09       1.0  T
  10    -21.0513896 -0.159877E-01  0.492E-01    0.08       1.0  T
  11    -21.0503874  0.100224E-02  0.570E-01    0.09       1.0  T
  12    -21.0547973 -0.440990E-02  0.473E-02    0.08       1.0  T
  13    -21.0548247 -0.273732E-04  0.101E-02    0.08       3.3  T
  14    -21.0548061  0.185734E-04  0.377E-02    0.08       1.0  T
  15    -21.0548251 -0.190432E-04  0.719E-03    0.08       4.6  T
  16    -21.0548259 -0.716330E-06  0.131E-04    0.08     253.6  T
  17    -21.0548259  0.184519E-08  0.374E-04    0.08      89.1  T
  18    -21.0548259  0.304321E-08  0.599E-04    0.08      55.7  T
  19    -21.0548259 -0.419392E-08  0.243E-04    0.08     137.2  T
  20    -21.0548259 -0.802874E-09  0.241E-05    0.08    1382.0  T
     SCC iter.                  ...        0 min,  0.004 sec
     gradient                   ...        0 min,  0.002 sec
 * total energy  :   -20.9769956 Eh     change       -0.5554967E-02 Eh
   gradient norm :     0.0647894 Eh/α   predicted    -0.6209558E-02 (  11.78%)
   displ. norm   :     0.3848416 α      lambda       -0.7859974E-02
   maximum displ.:     0.1678822 α      in ANC's #1, #11, #12, ...

........................................................................
.............................. CYCLE   41 ..............................
........................................................................
   1    -21.0493980 -0.210494E+02  0.143E+00    0.11       0.0  T
   2    -20.7690245  0.280374E+00  0.504E+00    0.52       1.0  T
   3    -20.9213242 -0.152300E+00  0.338E+00    0.19       1.0  T
   4    -21.0398697 -0.118545E+00  0.157E+00    0.10       1.0  T
   5    -21.0461008 -0.623109E-02  0.133E+00    0.11       1.0  T
   6    -21.0393474  0.675337E-02  0.151E+00    0.13       1.0  T
   7    -21.0427622 -0.341479E-02  0.143E+00    0.13       1.0  T
   8    -21.0703271 -0.275649E-01  0.337E-01    0.11       1.0  T
   9    -21.0704909 -0.163799E-03  0.255E-01    0.10       1.0  T
  10    -21.0704546  0.363870E-04  0.240E-01    0.10       1.0  T
  11    -21.0709593 -0.504766E-03  0.990E-02    0.09       1.0  T
  12    -21.0709989 -0.395778E-04  0.741E-02    0.09       1.0  T
  13    -21.0710736 -0.746653E-04  0.587E-03    0.09       5.7  T
  14    -21.0710739 -0.344917E-06  0.107E-03    0.09      31.1  T
  15    -21.0710733  0.579290E-06  0.657E-03    0.09       5.1  T
  16    -21.0710739 -0.579163E-06  0.986E-04    0.09      33.8  T
  17    -21.0710739  0.270057E-08  0.107E-03    0.09      31.1  T
  18    -21.0710739 -0.148072E-07  0.252E-04    0.09     132.1  T
  19    -21.0710739 -0.376563E-09  0.187E-04    0.09     177.8  T
     SCC iter.                  ...        0 min,  0.004 sec
[...]
   9    -21.0756693 -0.392177E-08  0.542E-05    0.15     615.4  T
  10    -21.0756693  0.137739E-10  0.472E-05    0.15     706.5  T
  11    -21.0756693 -0.233520E-10  0.161E-05    0.15    2069.3  T
     SCC iter.                  ...        0 min,  0.002 sec
     gradient                   ...        0 min,  0.002 sec
 * total energy  :   -21.2366085 Eh     change       -0.9967697E-05 Eh
   gradient norm :     0.0023387 Eh/α   predicted    -0.6112596E-05 ( -38.68%)
   displ. norm   :     0.0170590 α      lambda       -0.3023352E-04
   maximum displ.:     0.0097790 α      in ANC's #14, #4, #17, ...

........................................................................
.............................. CYCLE   37 ..............................
........................................................................
   1    -21.0758403 -0.210758E+02  0.863E-02    0.15       0.0  T
   2    -21.0534689  0.223714E-01  0.126E+00    0.15       1.0  T
   3    -21.0755167 -0.220477E-01  0.166E-01    0.15       1.0  T
   4    -21.0758727 -0.355975E-03  0.240E-02    0.15       1.4  T
   5    -21.0758739 -0.125074E-05  0.176E-02    0.15       1.9  T
   6    -21.0758776 -0.371793E-05  0.550E-03    0.15       6.1  T
   7    -21.0758778 -0.205602E-06  0.321E-03    0.15      10.4  T
   8    -21.0758779 -0.872573E-07  0.148E-03    0.15      22.5  T
   9    -21.0758779 -0.287224E-07  0.257E-04    0.15     129.5  T
  10    -21.0758779 -0.457732E-10  0.199E-04    0.15     167.5  T
  11    -21.0758779 -0.547772E-09  0.207E-05    0.15    1608.1  T
  12    -21.0758779  0.342837E-11  0.221E-05    0.15    1507.5  T
     SCC iter.                  ...        0 min,  0.003 sec
     gradient                   ...        0 min,  0.002 sec
 * total energy  :   -21.2366224 Eh     change       -0.1391066E-04 Eh
   gradient norm :     0.0034918 Eh/α   predicted    -0.1512113E-04 (   8.70%)
   displ. norm   :     0.0192527 α      lambda       -0.1699839E-04
   maximum displ.:     0.0103430 α      in ANC's #3, #2, #4, ...

........................................................................
.............................. CYCLE   38 ..............................
........................................................................
   1    -21.0753620 -0.210754E+02  0.190E-01    0.15       0.0  T
   2    -20.9896401  0.857219E-01  0.248E+00    0.28       1.0  T
   3    -21.0756443 -0.860041E-01  0.122E-01    0.15       1.0  T
   4    -21.0758177 -0.173449E-03  0.400E-02    0.15       1.0  T
   5    -21.0758197 -0.199878E-05  0.334E-02    0.15       1.0  T
   6    -21.0758291 -0.941636E-05  0.204E-02    0.15       1.6  T
   7    -21.0758348 -0.568592E-05  0.297E-03    0.15      11.2  T
   8    -21.0758349 -0.118457E-06  0.390E-04    0.15      85.5  T
   9    -21.0758349  0.756017E-10  0.253E-04    0.15     131.9  T
  10    -21.0758349 -0.776673E-09  0.565E-05    0.15     590.0  T
  11    -21.0758349  0.790656E-10  0.864E-05    0.15     385.9  T
  12    -21.0758349 -0.992948E-10  0.166E-05    0.15    2010.1  T
  13    -21.0758349 -0.321165E-11  0.531E-06    0.15    6273.1  T
     SCC iter.                  ...        0 min,  0.003 sec
     gradient                   ...        0 min,  0.002 sec
 * total energy  :   -21.2366245 Eh     change       -0.2031571E-05 Eh
   gradient norm :     0.0024392 Eh/α   predicted    -0.8501451E-05 ( 318.47%)
   displ. norm   :     0.0094410 α      lambda       -0.9482005E-05
   maximum displ.:     0.0044012 α      in ANC's #3, #2, #1, ...

........................................................................
.............................. CYCLE   39 ..............................
........................................................................
   1    -21.0759178 -0.210759E+02  0.357E-02    0.15       0.0  T
   2    -21.0709046  0.501316E-02  0.596E-01    0.16       1.0  T
   3    -21.0759276 -0.502298E-02  0.128E-02    0.15       2.6  T
   4    -21.0759274  0.203793E-06  0.519E-03    0.15       6.4  T
   5    -21.0759276 -0.184647E-06  0.291E-03    0.15      11.5  T
   6    -21.0759277 -0.850476E-07  0.132E-03    0.15      25.2  T
   7    -21.0759277 -0.108059E-07  0.880E-04    0.15      37.9  T
   8    -21.0759277 -0.976673E-08  0.268E-04    0.15     124.3  T
   9    -21.0759277 -0.925496E-09  0.598E-05    0.15     557.8  T
  10    -21.0759277  0.195328E-10  0.584E-05    0.15     570.9  T
  11    -21.0759277 -0.379323E-10  0.205E-05    0.15    1624.6  T
  12    -21.0759277 -0.479616E-11  0.170E-06    0.15   19576.2  T
     SCC iter.                  ...        0 min,  0.003 sec
     gradient                   ...        0 min,  0.002 sec
 * total energy  :   -21.2366304 Eh     change       -0.5899924E-05 Eh
   gradient norm :     0.0015950 Eh/α   predicted    -0.4743578E-05 ( -19.60%)
   displ. norm   :     0.0056164 α      lambda       -0.2752582E-05
   maximum displ.:     0.0029646 α      in ANC's #1, #11, #20, ...

........................................................................
.............................. CYCLE   40 ..............................
........................................................................
   1    -21.0757960 -0.210758E+02  0.866E-02    0.15       0.0  T
   2    -21.0381747  0.376213E-01  0.163E+00    0.20       1.0  T
   3    -21.0758862 -0.377115E-01  0.338E-02    0.15       1.0  T
   4    -21.0758982 -0.119808E-04  0.143E-02    0.15       2.3  T
   5    -21.0759004 -0.215548E-05  0.427E-03    0.15       7.8  T
   6    -21.0759002  0.206691E-06  0.441E-03    0.15       7.6  T
   7    -21.0759004 -0.260097E-06  0.890E-04    0.15      37.4  T
   8    -21.0759004 -0.400264E-08  0.643E-04    0.15      51.8  T
   9    -21.0759004 -0.519355E-08  0.139E-04    0.15     239.7  T
  10    -21.0759004 -0.107175E-09  0.908E-05    0.15     366.9  T
  11    -21.0759004 -0.659597E-10  0.562E-05    0.15     593.6  T
  12    -21.0759004 -0.425189E-10  0.526E-06    0.15    6335.8  T
  13    -21.0759004 -0.248690E-13  0.300E-06    0.15   11116.9  T
     SCC iter.                  ...        0 min,  0.003 sec
     gradient                   ...        0 min,  0.002 sec
 * total energy  :   -21.2366327 Eh     change       -0.2374365E-05 Eh
   gradient norm :     0.0004940 Eh/α   predicted    -0.1374942E-05 ( -42.09%)
   displ. norm   :     0.0044555 α      lambda       -0.9365376E-06
   maximum displ.:     0.0017364 α      in ANC's #3, #2, #4, ...

........................................................................
.............................. CYCLE   41 ..............................
........................................................................
   1    -21.0759182 -0.210759E+02  0.692E-02    0.15       0.0  T
   2    -21.0488838  0.270344E-01  0.139E+00    0.18       1.0  T
   3    -21.0759775 -0.270937E-01  0.243E-02    0.15       1.4  T
   4    -21.0759834 -0.586672E-05  0.106E-02    0.15       3.1  T
   5    -21.0759845 -0.111421E-05  0.408E-03    0.15       8.2  T
   6    -21.0759846 -0.102211E-06  0.124E-03    0.15      26.9  T
   7    -21.0759846 -0.123151E-07  0.767E-04    0.15      43.4  T
   8    -21.0759846 -0.356210E-08  0.494E-04    0.15      67.4  T
   9    -21.0759846 -0.320677E-08  0.636E-05    0.15     524.1  T
  10    -21.0759846  0.191847E-11  0.507E-05    0.15     657.9  T
  11    -21.0759846 -0.285425E-10  0.198E-05    0.15    1687.1  T
  12    -21.0759846 -0.389022E-11  0.942E-06    0.15    3540.0  T
     SCC iter.                  ...        0 min,  0.004 sec
     gradient                   ...        0 min,  0.002 sec
 * total energy  :   -21.2366334 Eh     change       -0.6953740E-06 Eh
   gradient norm :     0.0002219 Eh/α   predicted    -0.4690120E-06 ( -32.55%)
   displ. norm   :     0.0019559 α      lambda       -0.1590502E-06
   maximum displ.:     0.0008963 α      in ANC's #1, #5, #14, ...

........................................................................
.............................. CYCLE   42 ..............................
........................................................................
   1    -21.0759206 -0.210759E+02  0.186E-02    0.15       0.0  T
   2    -21.0731330  0.278760E-02  0.445E-01    0.15       1.0  T
   3    -21.0759248 -0.279182E-02  0.595E-03    0.15       5.6  T
   4    -21.0759250 -0.231493E-06  0.327E-03    0.15      10.2  T
   5    -21.0759250 -0.126654E-07  0.276E-03    0.15      12.1  T
   6    -21.0759251 -0.966318E-07  0.325E-04    0.15     102.7  T
   7    -21.0759251 -0.591434E-09  0.169E-04    0.15     197.5  T
   8    -21.0759251  0.113157E-09  0.163E-04    0.15     205.0  T
   9    -21.0759251 -0.366949E-09  0.120E-05    0.15    2777.0  T
  10    -21.0759251  0.994760E-13  0.101E-05    0.15    3305.8  T
     SCC iter.                  ...        0 min,  0.002 sec
     gradient                   ...        0 min,  0.002 sec
 * total energy  :   -21.2366335 Eh     change       -0.3083424E-07 Eh
   gradient norm :     0.0003021 Eh/α   predicted    -0.7815731E-07 ( 153.48%)
   displ. norm   :     0.0010696 α      lambda       -0.7771137E-07
   maximum displ.:     0.0006189 α      in ANC's #1, #5, #14, ...
 * RMSD in coord.:     0.6859016 α      energy gain  -0.1610130E+00 Eh

generating ANC from model Hessian ...
Using Lindh-Hessian (1995)
 Shifting diagonal of input Hessian by   6.463742967412834E-003
 Lowest  eigenvalues of input Hessian
   -0.000000   -0.000000   -0.000000    0.000000    0.000000    0.000000
    0.010000    0.025484    0.027331    0.030412    0.061608    0.076686
    0.105848    0.140861    0.166129    0.180374    0.236672    0.349926
 Highest eigenvalues
    1.208895    1.518175    1.642430    2.156846    2.451722    2.809882
 

........................................................................
.............................. CYCLE   43 ..............................
........................................................................
   1    -21.0759254 -0.210759E+02  0.285E-03    0.15       0.0  T
   2    -21.0759216  0.383198E-05  0.166E-02    0.15       2.0  T
   3    -21.0759253 -0.375693E-05  0.298E-03    0.15      11.2  T
   4    -21.0759254 -0.674165E-07  0.164E-03    0.15      20.3  T
   5    -21.0759254 -0.246728E-07  0.325E-04    0.15     102.7  T
   6    -21.0759254 -0.413678E-09  0.211E-04    0.15     157.7  T
   7    -21.0759254 -0.427654E-09  0.868E-05    0.15     383.9  T
   8    -21.0759254 -0.746958E-10  0.199E-05    0.15    1673.0  T
   9    -21.0759254  0.415668E-12  0.184E-05    0.15    1810.5  T
     SCC iter.                  ...        0 min,  0.002 sec
     gradient                   ...        0 min,  0.002 sec
 * total energy  :   -21.2366335 Eh     change       -0.6043598E-07 Eh
   gradient norm :     0.0000744 Eh/α   predicted     0.0000000E+00 (-100.00%)
   displ. norm   :     0.0009582 α      lambda       -0.1861457E-07
   maximum displ.:     0.0005516 α      in ANC's #3, #2, #1, ...

   *** GEOMETRY OPTIMIZATION CONVERGED AFTER 43 ITERATIONS ***

------------------------------------------------------------------------
 total energy gain :          -0.1345196 Eh      -84.4123 kcal/mol
 total RMSD        :           2.8067813 α         1.4853 Å
------------------------------------------------------------------------

 ANCopt (total)                0 d,  0 h,  0 min,  0.279 sec
 optimizer setup                ...        0 min,  0.000 sec (  0.026%)
 model hessian                  ...        0 min,  0.001 sec (  0.376%)
 ANC generation                 ...        0 min,  0.000 sec (  0.151%)
 coordinate transformation      ...        0 min,  0.000 sec (  0.122%)
 single point calculation       ...        0 min,  0.271 sec ( 97.238%)
 optimization log               ...        0 min,  0.002 sec (  0.606%)
 hessian update                 ...        0 min,  0.000 sec (  0.106%)
 rational function              ...        0 min,  0.002 sec (  0.718%)

================
 final structure:
================
$coord
   -0.59808988467540   -0.10228087265714   -2.50515954057013      N 
   -0.74035042216464   -1.51295434985421   -0.53022005288313      C 
   -3.01185530651758   -2.15343090091500    0.37869513835240      N 
   -5.11492131063538   -2.56531961840068    0.54665023972482      N 
    5.69051300779990   -2.92212994531232    0.76016629505928      O 
    3.58075034325758   -2.51609886010393   -0.05843061885340      N 
    1.39322126836190   -2.34699213673577    0.94730771258154      C 
   -2.23692813734731    0.47611461563054   -3.30482980094020      H 
    0.98556894522556   -3.00442985583587    2.86097703060135      H 
$end
 
 Bond Distances (Angstroems)
 ---------------------------
N1-C2=1.2865         N1-H8=1.0123         C2-N1=1.2865         C2-N3=1.3383         C2-C7=1.4425         N3-C2=1.3383         
N3-N4=1.1375         N4-N3=1.1375         O5-N6=1.2167         N6-O5=1.2167         N6-C7=1.2772         C7-C2=1.4425         
C7-N6=1.2772         C7-H9=1.0923         H8-N1=1.0123         H9-C7=1.0923         
 C  H  Rav=1.0923 sigma=0.0000  Rmin=1.0923  Rmax=1.0923     1
 C  C  Rav=1.4425 sigma=0.0000  Rmin=1.4425  Rmax=1.4425     1
 N  H  Rav=1.0123 sigma=0.0000  Rmin=1.0123  Rmax=1.0123     1
 N  C  Rav=1.3007 sigma=0.0269  Rmin=1.2772  Rmax=1.3383     3
 N  N  Rav=1.1375 sigma=0.0000  Rmin=1.1375  Rmax=1.1375     1
 O  N  Rav=1.2167 sigma=0.0000  Rmin=1.2167  Rmax=1.2167     1
 
 selected bond angles (degree)
 --------------------
H8-N1-C2=117.70                N3-C2-N1=119.44                C7-C2-N1=124.89                C7-C2-N3=115.51                
N4-N3-C2=162.81                C7-N6-O5=134.08                N6-C7-C2=120.33                H9-C7-C2=116.45                
H9-C7-N6=122.89                
 
 selected dihedral angles (degree)
 ---------------------------------
N3-C2-N1-H8=  0.00            C7-C2-N1-H8=184.82            N4-N3-C2-N1= 22.61            N4-N3-C2-C7=198.25            
N6-C7-C2-N1=334.64            N6-C7-C2-N3=159.27            H9-C7-C2-N1=161.08            H9-C7-C2-N3=345.72            
C2-C7-N6-O5=171.96            H9-C7-N6-O5=345.09            

========================================================================
 FINAL SINGLEPOINT CALCULATION ON OPTIMIZED GEOMETRY
========================================================================

          ...................................................
          :                      SETUP                      :
          :.................................................:
          :  # basis functions                  30          :
          :  # atomic orbitals                  30          :
          :  # shells                           16          :
          :  # electrons                        36          :
          :  max. iterations                    50          :
          :  Hamiltonian                  GFN2-xTB          :
          :  restarted?                      false          :
          :  GBSA solvation                  false          :
          :  PC potential                    false          :
          :  electronic temp.          300.0000000     K    :
          :  accuracy                    1.0000000          :
          :  -> integral cutoff          0.2500000E+02      :
          :  -> integral neglect         0.1000000E-07      :
          :  -> SCF convergence          0.1000000E-05 Eh   :
          :  -> wf. convergence          0.1000000E-03 e    :
          :  Broyden damping             0.4000000          :
          ...................................................

 iter      E             dE          RMSdq      gap      omega  full diag
   1    -21.0759254 -0.210759E+02  0.193E-05    0.15       0.0  T
   2    -21.0759254  0.134342E-09  0.918E-05    0.15     362.9  T
   3    -21.0759254  0.705594E-09  0.250E-04    0.15     133.4  T

   *** convergence criteria satisfied after 3 iterations ***

         #    Occupation            Energy/Eh            Energy/eV
      -------------------------------------------------------------
         1        2.0000           -0.7539497             -20.5160
       ...           ...                  ...                  ...
        12        2.0000           -0.5505666             -14.9817
        13        2.0000           -0.5274954             -14.3539
        14        2.0000           -0.5084749             -13.8363
        15        2.0000           -0.5029336             -13.6855
        16        2.0000           -0.4330422             -11.7837
        17        2.0000           -0.4245235             -11.5519
        18        1.8965           -0.3672027              -9.9921 (HOMO)
        19        0.1035           -0.3616772              -9.8417 (LUMO)
        20                         -0.3453285              -9.3969
        21                         -0.2832910              -7.7087
        22                         -0.1862779              -5.0689
        23                          0.0253928               0.6910
       ...                                ...                  ...
        30                          0.8413642              22.8947
      -------------------------------------------------------------
                  HL-Gap            0.0055255 Eh            0.1504 eV
             Fermi-level           -0.3644399 Eh           -9.9169 eV

 SCC (total)                   0 d,  0 h,  0 min,  0.004 sec
 SCC setup                      ...        0 min,  0.000 sec (  2.333%)
 Dispersion                     ...        0 min,  0.000 sec (  0.699%)
 integral evaluation            ...        0 min,  0.001 sec ( 26.988%)
 zeroth order Hamiltonian       ...        0 min,  0.000 sec (  0.808%)
 iterations                     ...        0 min,  0.001 sec ( 17.689%)
 molecular gradient             ...        0 min,  0.002 sec ( 46.504%)
 printout                       ...        0 min,  0.000 sec (  4.057%)

         :::::::::::::::::::::::::::::::::::::::::::::::::::::
         ::                     SUMMARY                     ::
         :::::::::::::::::::::::::::::::::::::::::::::::::::::
         :: total energy              -21.236633524592 Eh   ::
         :: gradient norm               0.000089004950 Eh/α ::
         :: HOMO-LUMO gap               0.150355611322 eV   ::
         ::.................................................::
         :: SCC energy                -21.075925405587 Eh   ::
         :: -> isotropic ES             0.027529118544 Eh   ::
         :: -> anisotropic ES           0.003960908845 Eh   ::
         :: -> anisotropic XC           0.024922672408 Eh   ::
         :: -> dispersion              -0.005503545222 Eh   ::
         :: repulsion energy            0.242850225720 Eh   ::
         :: add. restraining           -0.403559476548 Eh   ::
         :::::::::::::::::::::::::::::::::::::::::::::::::::::

  # of points on xtbopt.log:           43
  doing short optimizations without Vbias ... 
   10  unconstrained dE :      0.028875
   20  unconstrained dE :      0.033526
   30  unconstrained dE :      0.034251
   40  unconstrained dE :      0.034128
 final path written to xtbpath_3.xyz
 
 energies in kcal/mol, RMSD in Bohr
run 1  barrier:  29.20  dE:  21.42  ed-prod RMSD:  2.80  ed-startpath RMSD:  0.00  prod-endpath RMSD:  0.00
run 2  barrier:  28.52  dE:  21.42  ed-prod RMSD:  2.81  ed-startpath RMSD:  0.00  prod-endpath RMSD:  0.01
run 3  barrier:  28.43  dE:  21.42  ed-prod RMSD:  2.81  ed-startpath RMSD:  0.00  prod-endpath RMSD:  0.01
 check potential xtbpath.dat (cummu. dRMSD in Bohr vs. E in kcal)

------------------------------------------------------------------------
 * finished run on 2021/06/02 at 10:00:07.040     
------------------------------------------------------------------------
 total:
 * wall-time:     0 d,  0 h,  0 min,  3.467 sec
 *  cpu-time:     0 d,  0 h,  0 min,  3.292 sec
 * ratio c/w:     0.950 speedup
 SCF:
 * wall-time:     0 d,  0 h,  0 min,  0.007 sec
 *  cpu-time:     0 d,  0 h,  0 min,  0.007 sec
 * ratio c/w:     0.993 speedup

