      -----------------------------------------------------------      
     |                   =====================                   |     
     |                           x T B                           |     
     |                   =====================                   |     
     |                         S. Grimme                         |     
     |          Mulliken Center for Theoretical Chemistry        |     
     |                    University of Bonn                     |     
     |                 Version 6.1.4 (SAW190525)                 |     
      -----------------------------------------------------------      

   This program is distributed in the hope that it will be useful,
   but WITHOUT ANY WARRANTY; without even the implied warranty of
   MERCHANTABILITY or FITNESS FOR A PARTICULAR PURPOSE.
   
   FOR NON-COMMERCIAL, ACADEMIA USE ONLY.
   
   Cite this work as:
   S. Grimme, C. Bannwarth, P. Shushkov, J. Comput. Theory Chem., 2017,
   13, 1989-2009. DOI: 10.1021/acs.jctc.7b00118
   C. Bannwarth, S. Ehlert and S. Grimme., J. Comput. Theory Chem., 2019,
   just accepted. DOI: 10.1021/acs.jctc.8b01176
   
   for sTDA-xTB:
   S. Grimme and C. Bannwarth, J. Chem. Phys., 2016, 145, 054103.
   DOI: 10.1063/1.4959605
   
   in the mass-spec context:
   V. Asgeirsson, C. Bauer and S. Grimme, Chem. Sci., 2017, 8, 4879.
   DOI: 10.1039/c7sc00601b
   
   for metadynamics refer to:
   S. Grimme, J. Chem. Theory Comput. Article ASAP, 2019,
   DOI: 10.1021/acs.jctc.9b00143
   
   with help from (in alphabetical order)
   C. Bannwarth, F. Bohle, G. Brandenburg, E. Caldeweyher, M. Checinski,
   S. Dohm, S. Ehlert, S. Ehrlich, F. März, H. Neugebauer, J. Pisarek,
   P. Pracht, P. Shushkov, and S. Spicher.
   
 * started run on 2021/06/02 at 10:00:07.806     

           -------------------------------------------------
          |                Calculation Setup                |
           -------------------------------------------------

          program call               : /groups/kemi/koerstz/opt/xtb/6.1/bin/xtb path_point_3.xyz --gfn2 --acc 0.2 --chrg 0
          hostname                   : node305
          coordinate file            : path_point_3.xyz
          omp threads                :                     1
          number of atoms            :                     9
          number of electrons        :                    36
          charge                     :                     0
          spin                       :                   0.0
          first test random number   :      0.87934926512869


########################################################################
# WARNING! Please study the warnings concerning your input carefully
#  - XTBPATH is not set, using XTBHOME instead
########################################################################

           ------------------------------------------------- 
          |                 G F N 2 - x T B                 |
          | Geometry, Frequencies, Noncovalent interactions |
          |            JCTC 2018 parametrisation            |
           ------------------------------------------------- 
             k(s)              :                1.8500
             k(p)              :                2.2300
             k(d)              :                2.2300
             k(f)              :                2.0000
             kEN (H0ij)        :               -2.0000
             D4 a1             :                0.5200
             D4 a2             :                5.0000
             D4 s6             :                1.0000
             D4 s8             :                2.7000
             D4 s9             :                5.0000
             alphaj            :                2.0000

  Z AO/shell   Hii/eV     exponent
  1     Wed Apr 25 08:07:45 CEST 2018   EN: 2.200 GM2: 0.406  GM3: 0.0800  RAES: 1.40
     1s    -10.707211    1.230000
  6     Wed Apr 25 08:07:45 CEST 2018   EN: 2.550 GM2: 0.538  GM3: 0.1500  RAES: 3.00
     2s    -13.970922    2.096432
     2p    -10.063292    1.800000
  7     Wed Apr 25 08:07:45 CEST 2018   EN: 3.040 GM2: 0.461  GM3:-0.0640  RAES: 1.90
     2s    -16.686243    2.339881
     2p    -12.523956    2.014332
  8     Wed Apr 25 08:07:45 CEST 2018   EN: 3.440 GM2: 0.452  GM3:-0.0517  RAES: 1.80
     2s    -20.229985    2.439742
     2p    -15.503117    2.137023


            Z     q(EN)     CN     RAES       Cart. coordinates
     1  N   5.0   -0.47    2.01    1.90    -0.99972     0.99588    -1.34988
     2  C   4.0    0.34    3.05    3.02    -0.64217    -0.99133    -0.16931
     3  N   5.0   -0.11    2.02    1.90    -2.21102    -3.11387    -0.05994
     4  N   5.0   -0.15    1.00    1.90    -2.99726    -4.78754     1.01322
     5  O   6.0   -0.10    1.04    1.80     1.75572    -4.19269    -1.71004
     6  N   5.0   -0.15    2.05    1.90     2.88651    -3.31787     0.26598
     7  C   4.0    0.14    3.04    3.02     1.71114    -1.53863     1.36540
     8  H   1.0    0.33    1.00    1.43    -2.49281     1.14442    -2.51670
     9  H   1.0    0.17    0.99    1.43     2.14173    -0.69976     3.21991

           ------------------------------------------------- 
          |        Self-Consistent Charge Iterations        |
           ------------------------------------------------- 
q/qsh data taken from xtbrestart
CAMM data taken from xtbrestart

          ...................................................
          :                      SETUP                      :
          :.................................................:
          :  # basis functions                  30          :
          :  # atomic orbitals                  30          :
          :  # shells                           16          :
          :  # electrons                        36          :
          :  max. iterations                   250          :
          :  Hamiltonian                  GFN2-xTB          :
          :  restarted?                       true          :
          :  GBSA solvation                  false          :
          :  PC potential                    false          :
          :  electronic temp.          300.0000000     K    :
          :  accuracy                    0.2000000          :
          :  -> integral cutoff          0.3198970E+02      :
          :  -> integral neglect         0.2000000E-08      :
          :  -> SCF convergence          0.2000000E-06 Eh   :
          :  -> wf. convergence          0.2000000E-04 e    :
          :  Broyden damping             0.4000000          :
          ...................................................

 iter      E             dE          RMSdq      gap      omega  full diag
   1    -21.0553981 -0.210554E+02  0.395E-01    0.42       0.0  T
   2    -21.0546571  0.740968E-03  0.341E-01    0.47       1.0  T
   3    -21.0536646  0.992524E-03  0.416E-01    0.36       1.0  T
   4    -21.0554840 -0.181944E-02  0.146E-01    0.44       1.0  T
   5    -21.0556926 -0.208608E-03  0.317E-02    0.42       1.1  T
   6    -21.0556995 -0.682785E-05  0.114E-02    0.42       2.9  T
   7    -21.0556996 -0.122937E-06  0.519E-03    0.41       6.4  T
   8    -21.0556998 -0.203533E-06  0.213E-03    0.42      15.6  T
   9    -21.0556998 -0.192345E-07  0.103E-03    0.42      32.2  T
  10    -21.0556998 -0.122598E-07  0.155E-04    0.42     215.2  T
  11    -21.0556998 -0.871871E-10  0.761E-05    0.42     437.9  T

   *** convergence criteria satisfied after 11 iterations ***

         #    Occupation            Energy/Eh            Energy/eV
      -------------------------------------------------------------
         1        2.0000           -0.7584612             -20.6388
       ...           ...                  ...                  ...
        12        2.0000           -0.5461884             -14.8625
        13        2.0000           -0.5324575             -14.4889
        14        2.0000           -0.5158267             -14.0364
        15        2.0000           -0.4794493             -13.0465
        16        2.0000           -0.4490041             -12.2180
        17        2.0000           -0.4193025             -11.4098
        18        1.9994           -0.3846483             -10.4668 (HOMO)
        19        0.0006           -0.3693800             -10.0513 (LUMO)
        20                         -0.3447214              -9.3803
        21                         -0.2709820              -7.3738
        22                         -0.2358801              -6.4186
        23                          0.0074275               0.2021
       ...                                ...                  ...
        30                          0.7458099              20.2945
      -------------------------------------------------------------
                  HL-Gap            0.0152684 Eh            0.4155 eV
             Fermi-level           -0.3770141 Eh          -10.2591 eV

 SCC (total)                   0 d,  0 h,  0 min,  0.007 sec
 SCC setup                      ...        0 min,  0.000 sec (  1.876%)
 Dispersion                     ...        0 min,  0.000 sec (  0.901%)
 integral evaluation            ...        0 min,  0.001 sec ( 15.822%)
 zeroth order Hamiltonian       ...        0 min,  0.000 sec (  0.451%)
 iterations                     ...        0 min,  0.003 sec ( 49.499%)
 molecular gradient             ...        0 min,  0.002 sec ( 28.643%)
 printout                       ...        0 min,  0.000 sec (  2.357%)

         :::::::::::::::::::::::::::::::::::::::::::::::::::::
         ::                     SUMMARY                     ::
         :::::::::::::::::::::::::::::::::::::::::::::::::::::
         :: total energy              -20.818313057865 Eh   ::
         :: gradient norm               0.035468285128 Eh/α ::
         :: HOMO-LUMO gap               0.415473061661 eV   ::
         ::.................................................::
         :: SCC energy                -21.055699821300 Eh   ::
         :: -> isotropic ES             0.040987863943 Eh   ::
         :: -> anisotropic ES          -0.000081040152 Eh   ::
         :: -> anisotropic XC           0.029663131093 Eh   ::
         :: -> dispersion              -0.006206966821 Eh   ::
         :: repulsion energy            0.237381805889 Eh   ::
         :: add. restraining            0.000000000000 Eh   ::
         :::::::::::::::::::::::::::::::::::::::::::::::::::::

           -------------------------------------------------
          |                Property Printout                |
           -------------------------------------------------

    * Orbital Energies and Occupations

         #    Occupation            Energy/Eh            Energy/eV
      -------------------------------------------------------------
         1        2.0000           -0.7584612             -20.6388
       ...           ...                  ...                  ...
         6        2.0000           -0.6356228             -17.2962
         7        2.0000           -0.6270983             -17.0642
         8        2.0000           -0.6039883             -16.4354
         9        2.0000           -0.5838681             -15.8879
        10        2.0000           -0.5645635             -15.3626
        11        2.0000           -0.5478673             -14.9082
        12        2.0000           -0.5461884             -14.8625
        13        2.0000           -0.5324575             -14.4889
        14        2.0000           -0.5158267             -14.0364
        15        2.0000           -0.4794493             -13.0465
        16        2.0000           -0.4490041             -12.2180
        17        2.0000           -0.4193025             -11.4098
        18        1.9994           -0.3846483             -10.4668 (HOMO)
        19        0.0006           -0.3693800             -10.0513 (LUMO)
        20                         -0.3447214              -9.3803
        21                         -0.2709820              -7.3738
        22                         -0.2358801              -6.4186
        23                          0.0074275               0.2021
        24                          0.0262077               0.7131
        25                          0.0592978               1.6136
        26                          0.1626486               4.4259
        27                          0.2937912               7.9945
        28                          0.4697423              12.7823
        29                          0.6121145              16.6565
        30                          0.7458099              20.2945
      -------------------------------------------------------------
                  HL-Gap            0.0152684 Eh            0.4155 eV
             Fermi-level           -0.3770141 Eh          -10.2591 eV

   #   Z        covCN         q      C6AA      α(0)
   1   7 N      1.778    -0.260    27.572     7.776
   2   6 C      2.850     0.200    23.760     7.989
   3   7 N      1.905     0.164    19.088     6.477
   4   7 N      0.984    -0.045    21.758     6.709
   5   8 O      0.960    -0.373    21.107     6.162
   6   7 N      1.878     0.046    21.112     6.811
   7   6 C      2.856     0.006    27.873     8.653
   8   1 H      0.860     0.188     1.169     1.694
   9   1 H      0.923     0.074     2.043     2.235

 Mol. C6AA /au·bohr⁶  :       1301.114732
 Mol. C8AA /au·bohr⁸  :      29699.542164
 Mol. α(0) /au        :         54.506927


Wiberg/Mayer (AO) data.
largest (>0.10) Wiberg bond orders for each atom
          total WBO             WBO to atom ...
     1  N   3.134        C    2 1.885    H    8 0.926    O    5 0.114
     2  C   3.937        N    1 1.885    N    3 0.977    C    7 0.893
     3  N   3.711        N    4 2.358    C    2 0.977    O    5 0.147    N    6 0.101
     4  N   3.007        N    3 2.358    O    5 0.234    N    6 0.138
     5  O   2.102        N    6 1.295    N    4 0.234    C    7 0.207    N    3 0.147    N    1 0.114
     6  N   3.295        C    7 1.707    O    5 1.295    N    4 0.138    N    3 0.101
     7  C   3.944        N    6 1.707    H    9 0.950    C    2 0.893    O    5 0.207
     8  H   0.965        N    1 0.926
     9  H   0.995        C    7 0.950

molecular dipole:
                 x           y           z       tot (Debye)
 q only:       -0.920       0.815       0.686
   full:       -1.219       0.880       0.676       4.189
molecular quadrupole (traceless):
                xx          xy          yy          xz          yz          zz
 q only:        3.424       3.778      -5.933       4.035      -4.213       2.508
  q+dip:        3.482       3.457      -8.369       5.397      -3.757       4.887
   full:        3.726       3.276      -9.104       5.112      -3.101       5.378


           -------------------------------------------------
          | TOTAL ENERGY              -20.818313057865 Eh   |
          | GRADIENT NORM               0.035468285128 Eh/α |
          | HOMO-LUMO GAP               0.415473061661 eV   |
           -------------------------------------------------

------------------------------------------------------------------------
 * finished run on 2021/06/02 at 10:00:07.821     
------------------------------------------------------------------------
 total:
 * wall-time:     0 d,  0 h,  0 min,  0.015 sec
 *  cpu-time:     0 d,  0 h,  0 min,  0.014 sec
 * ratio c/w:     0.985 speedup
 SCF:
 * wall-time:     0 d,  0 h,  0 min,  0.007 sec
 *  cpu-time:     0 d,  0 h,  0 min,  0.007 sec
 * ratio c/w:     1.000 speedup

