      -----------------------------------------------------------      
     |                   =====================                   |     
     |                           x T B                           |     
     |                   =====================                   |     
     |                         S. Grimme                         |     
     |          Mulliken Center for Theoretical Chemistry        |     
     |                    University of Bonn                     |     
     |                 Version 6.1.4 (SAW190525)                 |     
      -----------------------------------------------------------      

   This program is distributed in the hope that it will be useful,
   but WITHOUT ANY WARRANTY; without even the implied warranty of
   MERCHANTABILITY or FITNESS FOR A PARTICULAR PURPOSE.
   
   FOR NON-COMMERCIAL, ACADEMIA USE ONLY.
   
   Cite this work as:
   S. Grimme, C. Bannwarth, P. Shushkov, J. Comput. Theory Chem., 2017,
   13, 1989-2009. DOI: 10.1021/acs.jctc.7b00118
   C. Bannwarth, S. Ehlert and S. Grimme., J. Comput. Theory Chem., 2019,
   just accepted. DOI: 10.1021/acs.jctc.8b01176
   
   for sTDA-xTB:
   S. Grimme and C. Bannwarth, J. Chem. Phys., 2016, 145, 054103.
   DOI: 10.1063/1.4959605
   
   in the mass-spec context:
   V. Asgeirsson, C. Bauer and S. Grimme, Chem. Sci., 2017, 8, 4879.
   DOI: 10.1039/c7sc00601b
   
   for metadynamics refer to:
   S. Grimme, J. Chem. Theory Comput. Article ASAP, 2019,
   DOI: 10.1021/acs.jctc.9b00143
   
   with help from (in alphabetical order)
   C. Bannwarth, F. Bohle, G. Brandenburg, E. Caldeweyher, M. Checinski,
   S. Dohm, S. Ehlert, S. Ehrlich, F. März, H. Neugebauer, J. Pisarek,
   P. Pracht, P. Shushkov, and S. Spicher.
   
 * started run on 2021/06/02 at 10:00:07.680     

           -------------------------------------------------
          |                Calculation Setup                |
           -------------------------------------------------

          program call               : /groups/kemi/koerstz/opt/xtb/6.1/bin/xtb path_point_10.xyz --gfn2 --acc 0.2 --chrg 0
          hostname                   : node305
          coordinate file            : path_point_10.xyz
          omp threads                :                     1
          number of atoms            :                     9
          number of electrons        :                    36
          charge                     :                     0
          spin                       :                   0.0
          first test random number   :      0.58488792819691


########################################################################
# WARNING! Please study the warnings concerning your input carefully
#  - XTBPATH is not set, using XTBHOME instead
########################################################################

           ------------------------------------------------- 
          |                 G F N 2 - x T B                 |
          | Geometry, Frequencies, Noncovalent interactions |
          |            JCTC 2018 parametrisation            |
           ------------------------------------------------- 
             k(s)              :                1.8500
             k(p)              :                2.2300
             k(d)              :                2.2300
             k(f)              :                2.0000
             kEN (H0ij)        :               -2.0000
             D4 a1             :                0.5200
             D4 a2             :                5.0000
             D4 s6             :                1.0000
             D4 s8             :                2.7000
             D4 s9             :                5.0000
             alphaj            :                2.0000

  Z AO/shell   Hii/eV     exponent
  1     Wed Apr 25 08:07:45 CEST 2018   EN: 2.200 GM2: 0.406  GM3: 0.0800  RAES: 1.40
     1s    -10.707211    1.230000
  6     Wed Apr 25 08:07:45 CEST 2018   EN: 2.550 GM2: 0.538  GM3: 0.1500  RAES: 3.00
     2s    -13.970922    2.096432
     2p    -10.063292    1.800000
  7     Wed Apr 25 08:07:45 CEST 2018   EN: 3.040 GM2: 0.461  GM3:-0.0640  RAES: 1.90
     2s    -16.686243    2.339881
     2p    -12.523956    2.014332
  8     Wed Apr 25 08:07:45 CEST 2018   EN: 3.440 GM2: 0.452  GM3:-0.0517  RAES: 1.80
     2s    -20.229985    2.439742
     2p    -15.503117    2.137023


            Z     q(EN)     CN     RAES       Cart. coordinates
     1  N   5.0   -0.46    2.01    1.90    -0.97025     0.87345    -1.41811
     2  C   4.0    0.34    3.07    3.02    -0.64865    -1.08910    -0.18717
     3  N   5.0   -0.11    2.01    1.90    -2.34932    -3.11109     0.07038
     4  N   5.0   -0.15    1.00    1.90    -3.17102    -4.59877     1.32001
     5  O   6.0   -0.11    1.04    1.80     2.04318    -3.89627    -1.96839
     6  N   5.0   -0.15    2.06    1.90     3.00224    -3.14060     0.14518
     7  C   4.0    0.14    3.04    3.02     1.69082    -1.60990     1.37725
     8  H   1.0    0.33    1.00    1.43    -2.44140     1.02459    -2.60122
     9  H   1.0    0.17    0.99    1.43     1.99651    -0.95374     3.32070

           ------------------------------------------------- 
          |        Self-Consistent Charge Iterations        |
           ------------------------------------------------- 
q/qsh data taken from xtbrestart
CAMM data taken from xtbrestart

          ...................................................
          :                      SETUP                      :
          :.................................................:
          :  # basis functions                  30          :
          :  # atomic orbitals                  30          :
          :  # shells                           16          :
          :  # electrons                        36          :
          :  max. iterations                   250          :
          :  Hamiltonian                  GFN2-xTB          :
          :  restarted?                       true          :
          :  GBSA solvation                  false          :
          :  PC potential                    false          :
          :  electronic temp.          300.0000000     K    :
          :  accuracy                    0.2000000          :
          :  -> integral cutoff          0.3198970E+02      :
          :  -> integral neglect         0.2000000E-08      :
          :  -> SCF convergence          0.2000000E-06 Eh   :
          :  -> wf. convergence          0.2000000E-04 e    :
          :  Broyden damping             0.4000000          :
          ...................................................

 iter      E             dE          RMSdq      gap      omega  full diag
   1    -21.0395461 -0.210395E+02  0.157E+00    0.60       0.0  T
   2    -20.4089616  0.630585E+00  0.702E+00    0.18       1.0  T
   3    -21.0606912 -0.651730E+00  0.731E-01    0.38       1.0  T
   4    -21.0615819 -0.890688E-03  0.513E-01    0.34       1.0  T
   5    -21.0630665 -0.148462E-02  0.288E-01    0.28       1.0  T
   6    -21.0630822 -0.157117E-04  0.201E-01    0.27       1.0  T
   7    -21.0634118 -0.329605E-03  0.114E-01    0.25       1.0  T
   8    -21.0634912 -0.794200E-04  0.582E-02    0.24       1.0  T
   9    -21.0635164 -0.251617E-04  0.262E-02    0.23       1.3  T
  10    -21.0635213 -0.487803E-05  0.107E-02    0.23       3.1  T
  11    -21.0635223 -0.970326E-06  0.321E-03    0.23      10.4  T
  12    -21.0635223 -0.838931E-07  0.468E-04    0.23      71.2  T
  13    -21.0635223 -0.105022E-08  0.197E-04    0.23     169.1  T
  14    -21.0635223 -0.247940E-09  0.607E-05    0.23     548.9  T

   *** convergence criteria satisfied after 14 iterations ***

         #    Occupation            Energy/Eh            Energy/eV
      -------------------------------------------------------------
         1        2.0000           -0.7664354             -20.8558
       ...           ...                  ...                  ...
        12        2.0000           -0.5483065             -14.9202
        13        2.0000           -0.5346282             -14.5480
        14        2.0000           -0.5150987             -14.0165
        15        2.0000           -0.4763479             -12.9621
        16        2.0000           -0.4493396             -12.2272
        17        2.0000           -0.4149040             -11.2901
        18        1.9752           -0.3786945             -10.3048 (HOMO)
        19        0.0248           -0.3703781             -10.0785 (LUMO)
        20                         -0.3456028              -9.4043
        21                         -0.2579996              -7.0205
        22                         -0.2441119              -6.6426
        23                          0.0098251               0.2674
       ...                                ...                  ...
        30                          0.7895902              21.4858
      -------------------------------------------------------------
                  HL-Gap            0.0083164 Eh            0.2263 eV
             Fermi-level           -0.3745363 Eh          -10.1917 eV

 SCC (total)                   0 d,  0 h,  0 min,  0.008 sec
 SCC setup                      ...        0 min,  0.000 sec (  1.616%)
 Dispersion                     ...        0 min,  0.000 sec (  0.797%)
 integral evaluation            ...        0 min,  0.001 sec ( 16.281%)
 zeroth order Hamiltonian       ...        0 min,  0.000 sec (  0.417%)
 iterations                     ...        0 min,  0.004 sec ( 52.553%)
 molecular gradient             ...        0 min,  0.002 sec ( 25.672%)
 printout                       ...        0 min,  0.000 sec (  2.235%)

         :::::::::::::::::::::::::::::::::::::::::::::::::::::
         ::                     SUMMARY                     ::
         :::::::::::::::::::::::::::::::::::::::::::::::::::::
         :: total energy              -20.811292754594 Eh   ::
         :: gradient norm               0.085332292881 Eh/α ::
         :: HOMO-LUMO gap               0.226300841036 eV   ::
         ::.................................................::
         :: SCC energy                -21.063522335573 Eh   ::
         :: -> isotropic ES             0.043372394794 Eh   ::
         :: -> anisotropic ES          -0.000002886985 Eh   ::
         :: -> anisotropic XC           0.028693886423 Eh   ::
         :: -> dispersion              -0.006185402317 Eh   ::
         :: repulsion energy            0.252224303138 Eh   ::
         :: add. restraining            0.000000000000 Eh   ::
         :::::::::::::::::::::::::::::::::::::::::::::::::::::

           -------------------------------------------------
          |                Property Printout                |
           -------------------------------------------------

    * Orbital Energies and Occupations

         #    Occupation            Energy/Eh            Energy/eV
      -------------------------------------------------------------
         1        2.0000           -0.7664354             -20.8558
       ...           ...                  ...                  ...
         6        2.0000           -0.6374583             -17.3461
         7        2.0000           -0.6318629             -17.1939
         8        2.0000           -0.6066614             -16.5081
         9        2.0000           -0.5820711             -15.8390
        10        2.0000           -0.5642907             -15.3551
        11        2.0000           -0.5497775             -14.9602
        12        2.0000           -0.5483065             -14.9202
        13        2.0000           -0.5346282             -14.5480
        14        2.0000           -0.5150987             -14.0165
        15        2.0000           -0.4763479             -12.9621
        16        2.0000           -0.4493396             -12.2272
        17        2.0000           -0.4149040             -11.2901
        18        1.9752           -0.3786945             -10.3048 (HOMO)
        19        0.0248           -0.3703781             -10.0785 (LUMO)
        20                         -0.3456028              -9.4043
        21                         -0.2579996              -7.0205
        22                         -0.2441119              -6.6426
        23                          0.0098251               0.2674
        24                          0.0334885               0.9113
        25                          0.0597874               1.6269
        26                          0.1669717               4.5435
        27                          0.3053648               8.3094
        28                          0.5293354              14.4039
        29                          0.6093361              16.5809
        30                          0.7895902              21.4858
      -------------------------------------------------------------
                  HL-Gap            0.0083164 Eh            0.2263 eV
             Fermi-level           -0.3745363 Eh          -10.1917 eV

   #   Z        covCN         q      C6AA      α(0)
   1   7 N      1.779    -0.250    27.335     7.743
   2   6 C      2.866     0.201    23.737     7.986
   3   7 N      1.902     0.155    19.227     6.501
   4   7 N      0.985    -0.042    21.695     6.699
   5   8 O      0.959    -0.391    21.451     6.212
   6   7 N      1.892     0.059    20.864     6.772
   7   6 C      2.852     0.004    27.925     8.661
   8   1 H      0.861     0.192     1.148     1.679
   9   1 H      0.924     0.071     2.076     2.253

 Mol. C6AA /au·bohr⁶  :       1301.194833
 Mol. C8AA /au·bohr⁸  :      29698.462252
 Mol. α(0) /au        :         54.505198


Wiberg/Mayer (AO) data.
largest (>0.10) Wiberg bond orders for each atom
          total WBO             WBO to atom ...
     1  N   3.142        C    2 1.890    H    8 0.924    N    4 0.111
     2  C   3.931        N    1 1.890    N    3 0.964    C    7 0.872
     3  N   3.673        N    4 2.366    C    2 0.964    O    5 0.111    N    6 0.108
     4  N   2.981        N    3 2.366    O    5 0.184    N    6 0.149    N    1 0.111
     5  O   2.039        N    6 1.291    C    7 0.224    N    4 0.184    N    3 0.111
     6  N   3.333        C    7 1.735    O    5 1.291    N    4 0.149    N    3 0.108
     7  C   3.940        N    6 1.735    H    9 0.950    C    2 0.872    O    5 0.224
     8  H   0.963        N    1 0.924
     9  H   0.995        C    7 0.950

molecular dipole:
                 x           y           z       tot (Debye)
 q only:       -1.061       0.730       0.793
   full:       -1.348       0.758       0.801       4.427
molecular quadrupole (traceless):
                xx          xy          yy          xz          yz          zz
 q only:        2.827       4.209      -4.720       4.688      -4.801       1.893
  q+dip:        2.655       3.817      -6.628       6.296      -4.415       3.972
   full:        2.789       3.552      -6.952       6.129      -3.632       4.163


           -------------------------------------------------
          | TOTAL ENERGY              -20.811292754594 Eh   |
          | GRADIENT NORM               0.085332292881 Eh/α |
          | HOMO-LUMO GAP               0.226300841036 eV   |
           -------------------------------------------------

------------------------------------------------------------------------
 * finished run on 2021/06/02 at 10:00:07.696     
------------------------------------------------------------------------
 total:
 * wall-time:     0 d,  0 h,  0 min,  0.015 sec
 *  cpu-time:     0 d,  0 h,  0 min,  0.015 sec
 * ratio c/w:     0.986 speedup
 SCF:
 * wall-time:     0 d,  0 h,  0 min,  0.008 sec
 *  cpu-time:     0 d,  0 h,  0 min,  0.008 sec
 * ratio c/w:     1.000 speedup

