      -----------------------------------------------------------      
     |                   =====================                   |     
     |                           x T B                           |     
     |                   =====================                   |     
     |                         S. Grimme                         |     
     |          Mulliken Center for Theoretical Chemistry        |     
     |                    University of Bonn                     |     
     |                 Version 6.1.4 (SAW190525)                 |     
      -----------------------------------------------------------      

   This program is distributed in the hope that it will be useful,
   but WITHOUT ANY WARRANTY; without even the implied warranty of
   MERCHANTABILITY or FITNESS FOR A PARTICULAR PURPOSE.
   
   FOR NON-COMMERCIAL, ACADEMIA USE ONLY.
   
   Cite this work as:
   S. Grimme, C. Bannwarth, P. Shushkov, J. Comput. Theory Chem., 2017,
   13, 1989-2009. DOI: 10.1021/acs.jctc.7b00118
   C. Bannwarth, S. Ehlert and S. Grimme., J. Comput. Theory Chem., 2019,
   just accepted. DOI: 10.1021/acs.jctc.8b01176
   
   for sTDA-xTB:
   S. Grimme and C. Bannwarth, J. Chem. Phys., 2016, 145, 054103.
   DOI: 10.1063/1.4959605
   
   in the mass-spec context:
   V. Asgeirsson, C. Bauer and S. Grimme, Chem. Sci., 2017, 8, 4879.
   DOI: 10.1039/c7sc00601b
   
   for metadynamics refer to:
   S. Grimme, J. Chem. Theory Comput. Article ASAP, 2019,
   DOI: 10.1021/acs.jctc.9b00143
   
   with help from (in alphabetical order)
   C. Bannwarth, F. Bohle, G. Brandenburg, E. Caldeweyher, M. Checinski,
   S. Dohm, S. Ehlert, S. Ehrlich, F. März, H. Neugebauer, J. Pisarek,
   P. Pracht, P. Shushkov, and S. Spicher.
   
 * started run on 2021/06/02 at 10:00:07.743     

           -------------------------------------------------
          |                Calculation Setup                |
           -------------------------------------------------

          program call               : /groups/kemi/koerstz/opt/xtb/6.1/bin/xtb path_point_7.xyz --gfn2 --acc 0.2 --chrg 0
          hostname                   : node305
          coordinate file            : path_point_7.xyz
          omp threads                :                     1
          number of atoms            :                     9
          number of electrons        :                    36
          charge                     :                     0
          spin                       :                   0.0
          first test random number   :      0.45675036722039


########################################################################
# WARNING! Please study the warnings concerning your input carefully
#  - XTBPATH is not set, using XTBHOME instead
########################################################################

           ------------------------------------------------- 
          |                 G F N 2 - x T B                 |
          | Geometry, Frequencies, Noncovalent interactions |
          |            JCTC 2018 parametrisation            |
           ------------------------------------------------- 
             k(s)              :                1.8500
             k(p)              :                2.2300
             k(d)              :                2.2300
             k(f)              :                2.0000
             kEN (H0ij)        :               -2.0000
             D4 a1             :                0.5200
             D4 a2             :                5.0000
             D4 s6             :                1.0000
             D4 s8             :                2.7000
             D4 s9             :                5.0000
             alphaj            :                2.0000

  Z AO/shell   Hii/eV     exponent
  1     Wed Apr 25 08:07:45 CEST 2018   EN: 2.200 GM2: 0.406  GM3: 0.0800  RAES: 1.40
     1s    -10.707211    1.230000
  6     Wed Apr 25 08:07:45 CEST 2018   EN: 2.550 GM2: 0.538  GM3: 0.1500  RAES: 3.00
     2s    -13.970922    2.096432
     2p    -10.063292    1.800000
  7     Wed Apr 25 08:07:45 CEST 2018   EN: 3.040 GM2: 0.461  GM3:-0.0640  RAES: 1.90
     2s    -16.686243    2.339881
     2p    -12.523956    2.014332
  8     Wed Apr 25 08:07:45 CEST 2018   EN: 3.440 GM2: 0.452  GM3:-0.0517  RAES: 1.80
     2s    -20.229985    2.439742
     2p    -15.503117    2.137023


            Z     q(EN)     CN     RAES       Cart. coordinates
     1  N   5.0   -0.46    2.01    1.90    -0.98288     0.92592    -1.38887
     2  C   4.0    0.34    3.07    3.02    -0.64587    -1.04720    -0.17951
     3  N   5.0   -0.11    2.01    1.90    -2.29005    -3.11228     0.01453
     4  N   5.0   -0.15    1.00    1.90    -3.09655    -4.67967     1.18852
     5  O   6.0   -0.11    1.04    1.80     1.91998    -4.02330    -1.85767
     6  N   5.0   -0.15    2.06    1.90     2.95264    -3.21657     0.19695
     7  C   4.0    0.14    3.04    3.02     1.69953    -1.57936     1.37217
     8  H   1.0    0.33    1.00    1.43    -2.46343     1.07595    -2.56499
     9  H   1.0    0.17    0.99    1.43     2.05875    -0.84489     3.27751

           ------------------------------------------------- 
          |        Self-Consistent Charge Iterations        |
           ------------------------------------------------- 
q/qsh data taken from xtbrestart
CAMM data taken from xtbrestart

          ...................................................
          :                      SETUP                      :
          :.................................................:
          :  # basis functions                  30          :
          :  # atomic orbitals                  30          :
          :  # shells                           16          :
          :  # electrons                        36          :
          :  max. iterations                   250          :
          :  Hamiltonian                  GFN2-xTB          :
          :  restarted?                       true          :
          :  GBSA solvation                  false          :
          :  PC potential                    false          :
          :  electronic temp.          300.0000000     K    :
          :  accuracy                    0.2000000          :
          :  -> integral cutoff          0.3198970E+02      :
          :  -> integral neglect         0.2000000E-08      :
          :  -> SCF convergence          0.2000000E-06 Eh   :
          :  -> wf. convergence          0.2000000E-04 e    :
          :  Broyden damping             0.4000000          :
          ...................................................

 iter      E             dE          RMSdq      gap      omega  full diag
   1    -21.0459206 -0.210459E+02  0.162E+00    0.62       0.0  T
   2    -20.6628459  0.383075E+00  0.549E+00    0.12       1.0  T
   3    -21.0570398 -0.394194E+00  0.862E-01    0.51       1.0  T
   4    -21.0606063 -0.356643E-02  0.526E-01    0.42       1.0  T
   5    -21.0622659 -0.165968E-02  0.259E-01    0.36       1.0  T
   6    -21.0622948 -0.288312E-04  0.188E-01    0.35       1.0  T
   7    -21.0625415 -0.246754E-03  0.100E-01    0.32       1.0  T
   8    -21.0626101 -0.686017E-04  0.520E-02    0.31       1.0  T
   9    -21.0626339 -0.237956E-04  0.211E-02    0.31       1.6  T
  10    -21.0626376 -0.363819E-05  0.415E-03    0.30       8.0  T
  11    -21.0626374  0.112671E-06  0.394E-03    0.30       8.5  T
  12    -21.0626376 -0.141129E-06  0.141E-03    0.30      23.6  T
  13    -21.0626376 -0.139361E-07  0.497E-04    0.30      67.1  T
  14    -21.0626376 -0.274785E-08  0.101E-04    0.30     328.8  T
  15    -21.0626376 -0.632667E-10  0.116E-05    0.30    2861.3  T

   *** convergence criteria satisfied after 15 iterations ***

         #    Occupation            Energy/Eh            Energy/eV
      -------------------------------------------------------------
         1        2.0000           -0.7640305             -20.7903
       ...           ...                  ...                  ...
        12        2.0000           -0.5480928             -14.9144
        13        2.0000           -0.5341873             -14.5360
        14        2.0000           -0.5150707             -14.0158
        15        2.0000           -0.4773265             -12.9887
        16        2.0000           -0.4488073             -12.2127
        17        2.0000           -0.4168357             -11.3427
        18        1.9942           -0.3809030             -10.3649 (HOMO)
        19        0.0058           -0.3697977             -10.0627 (LUMO)
        20                         -0.3452556              -9.3949
        21                         -0.2627495              -7.1498
        22                         -0.2396992              -6.5225
        23                          0.0098014               0.2667
       ...                                ...                  ...
        30                          0.7784562              21.1829
      -------------------------------------------------------------
                  HL-Gap            0.0111053 Eh            0.3022 eV
             Fermi-level           -0.3753504 Eh          -10.2138 eV

 SCC (total)                   0 d,  0 h,  0 min,  0.008 sec
 SCC setup                      ...        0 min,  0.000 sec (  1.656%)
 Dispersion                     ...        0 min,  0.000 sec (  0.848%)
 integral evaluation            ...        0 min,  0.001 sec ( 13.889%)
 zeroth order Hamiltonian       ...        0 min,  0.000 sec (  0.398%)
 iterations                     ...        0 min,  0.004 sec ( 55.226%)
 molecular gradient             ...        0 min,  0.002 sec ( 25.379%)
 printout                       ...        0 min,  0.000 sec (  2.182%)

         :::::::::::::::::::::::::::::::::::::::::::::::::::::
         ::                     SUMMARY                     ::
         :::::::::::::::::::::::::::::::::::::::::::::::::::::
         :: total energy              -20.814440130224 Eh   ::
         :: gradient norm               0.064873876619 Eh/α ::
         :: HOMO-LUMO gap               0.302191118392 eV   ::
         ::.................................................::
         :: SCC energy                -21.062637599898 Eh   ::
         :: -> isotropic ES             0.042420691358 Eh   ::
         :: -> anisotropic ES          -0.000020296902 Eh   ::
         :: -> anisotropic XC           0.028963882030 Eh   ::
         :: -> dispersion              -0.006200156202 Eh   ::
         :: repulsion energy            0.248192337971 Eh   ::
         :: add. restraining            0.000000000000 Eh   ::
         :::::::::::::::::::::::::::::::::::::::::::::::::::::

           -------------------------------------------------
          |                Property Printout                |
           -------------------------------------------------

    * Orbital Energies and Occupations

         #    Occupation            Energy/Eh            Energy/eV
      -------------------------------------------------------------
         1        2.0000           -0.7640305             -20.7903
       ...           ...                  ...                  ...
         6        2.0000           -0.6371472             -17.3377
         7        2.0000           -0.6302293             -17.1494
         8        2.0000           -0.6059196             -16.4879
         9        2.0000           -0.5828390             -15.8599
        10        2.0000           -0.5645892             -15.3633
        11        2.0000           -0.5492227             -14.9451
        12        2.0000           -0.5480928             -14.9144
        13        2.0000           -0.5341873             -14.5360
        14        2.0000           -0.5150707             -14.0158
        15        2.0000           -0.4773265             -12.9887
        16        2.0000           -0.4488073             -12.2127
        17        2.0000           -0.4168357             -11.3427
        18        1.9942           -0.3809030             -10.3649 (HOMO)
        19        0.0058           -0.3697977             -10.0627 (LUMO)
        20                         -0.3452556              -9.3949
        21                         -0.2627495              -7.1498
        22                         -0.2396992              -6.5225
        23                          0.0098014               0.2667
        24                          0.0323528               0.8804
        25                          0.0629076               1.7118
        26                          0.1662988               4.5252
        27                          0.3039692               8.2714
        28                          0.5097264              13.8704
        29                          0.6125905              16.6694
        30                          0.7784562              21.1829
      -------------------------------------------------------------
                  HL-Gap            0.0111053 Eh            0.3022 eV
             Fermi-level           -0.3753504 Eh          -10.2138 eV

   #   Z        covCN         q      C6AA      α(0)
   1   7 N      1.779    -0.255    27.463     7.761
   2   6 C      2.860     0.200    23.754     7.989
   3   7 N      1.903     0.161    19.140     6.486
   4   7 N      0.985    -0.042    21.704     6.700
   5   8 O      0.961    -0.383    21.300     6.190
   6   7 N      1.887     0.053    20.984     6.791
   7   6 C      2.856     0.006    27.888     8.656
   8   1 H      0.861     0.190     1.159     1.687
   9   1 H      0.924     0.072     2.068     2.249

 Mol. C6AA /au·bohr⁶  :       1301.262378
 Mol. C8AA /au·bohr⁸  :      29699.701705
 Mol. α(0) /au        :         54.508632


Wiberg/Mayer (AO) data.
largest (>0.10) Wiberg bond orders for each atom
          total WBO             WBO to atom ...
     1  N   3.141        C    2 1.884    H    8 0.925    O    5 0.112
     2  C   3.935        N    1 1.884    N    3 0.971    C    7 0.879
     3  N   3.696        N    4 2.365    C    2 0.971    O    5 0.125    N    6 0.107
     4  N   3.003        N    3 2.365    O    5 0.209    N    6 0.147
     5  O   2.075        N    6 1.291    C    7 0.214    N    4 0.209    N    3 0.125    N    1 0.112
     6  N   3.321        C    7 1.725    O    5 1.291    N    4 0.147    N    3 0.107
     7  C   3.943        N    6 1.725    H    9 0.950    C    2 0.879    O    5 0.214
     8  H   0.964        N    1 0.925
     9  H   0.995        C    7 0.950

molecular dipole:
                 x           y           z       tot (Debye)
 q only:       -1.006       0.758       0.749
   full:       -1.300       0.802       0.750       4.326
molecular quadrupole (traceless):
                xx          xy          yy          xz          yz          zz
 q only:        3.083       4.078      -5.217       4.377      -4.560       2.135
  q+dip:        3.020       3.720      -7.357       5.867      -4.151       4.337
   full:        3.194       3.505      -7.864       5.654      -3.417       4.671


           -------------------------------------------------
          | TOTAL ENERGY              -20.814440130224 Eh   |
          | GRADIENT NORM               0.064873876619 Eh/α |
          | HOMO-LUMO GAP               0.302191118392 eV   |
           -------------------------------------------------

------------------------------------------------------------------------
 * finished run on 2021/06/02 at 10:00:07.759     
------------------------------------------------------------------------
 total:
 * wall-time:     0 d,  0 h,  0 min,  0.015 sec
 *  cpu-time:     0 d,  0 h,  0 min,  0.015 sec
 * ratio c/w:     0.986 speedup
 SCF:
 * wall-time:     0 d,  0 h,  0 min,  0.008 sec
 *  cpu-time:     0 d,  0 h,  0 min,  0.008 sec
 * ratio c/w:     1.000 speedup

