      -----------------------------------------------------------      
     |                   =====================                   |     
     |                           x T B                           |     
     |                   =====================                   |     
     |                         S. Grimme                         |     
     |          Mulliken Center for Theoretical Chemistry        |     
     |                    University of Bonn                     |     
     |                 Version 6.1.4 (SAW190525)                 |     
      -----------------------------------------------------------      

   This program is distributed in the hope that it will be useful,
   but WITHOUT ANY WARRANTY; without even the implied warranty of
   MERCHANTABILITY or FITNESS FOR A PARTICULAR PURPOSE.
   
   FOR NON-COMMERCIAL, ACADEMIA USE ONLY.
   
   Cite this work as:
   S. Grimme, C. Bannwarth, P. Shushkov, J. Comput. Theory Chem., 2017,
   13, 1989-2009. DOI: 10.1021/acs.jctc.7b00118
   C. Bannwarth, S. Ehlert and S. Grimme., J. Comput. Theory Chem., 2019,
   just accepted. DOI: 10.1021/acs.jctc.8b01176
   
   for sTDA-xTB:
   S. Grimme and C. Bannwarth, J. Chem. Phys., 2016, 145, 054103.
   DOI: 10.1063/1.4959605
   
   in the mass-spec context:
   V. Asgeirsson, C. Bauer and S. Grimme, Chem. Sci., 2017, 8, 4879.
   DOI: 10.1039/c7sc00601b
   
   for metadynamics refer to:
   S. Grimme, J. Chem. Theory Comput. Article ASAP, 2019,
   DOI: 10.1021/acs.jctc.9b00143
   
   with help from (in alphabetical order)
   C. Bannwarth, F. Bohle, G. Brandenburg, E. Caldeweyher, M. Checinski,
   S. Dohm, S. Ehlert, S. Ehrlich, F. März, H. Neugebauer, J. Pisarek,
   P. Pracht, P. Shushkov, and S. Spicher.
   
 * started run on 2021/06/02 at 10:00:07.575     

           -------------------------------------------------
          |                Calculation Setup                |
           -------------------------------------------------

          program call               : /groups/kemi/koerstz/opt/xtb/6.1/bin/xtb path_point_14.xyz --gfn2 --acc 0.2 --chrg 0
          hostname                   : node305
          coordinate file            : path_point_14.xyz
          omp threads                :                     1
          number of atoms            :                     9
          number of electrons        :                    36
          charge                     :                     0
          spin                       :                   0.0
          first test random number   :      0.17224697798537


########################################################################
# WARNING! Please study the warnings concerning your input carefully
#  - XTBPATH is not set, using XTBHOME instead
########################################################################

           ------------------------------------------------- 
          |                 G F N 2 - x T B                 |
          | Geometry, Frequencies, Noncovalent interactions |
          |            JCTC 2018 parametrisation            |
           ------------------------------------------------- 
             k(s)              :                1.8500
             k(p)              :                2.2300
             k(d)              :                2.2300
             k(f)              :                2.0000
             kEN (H0ij)        :               -2.0000
             D4 a1             :                0.5200
             D4 a2             :                5.0000
             D4 s6             :                1.0000
             D4 s8             :                2.7000
             D4 s9             :                5.0000
             alphaj            :                2.0000

  Z AO/shell   Hii/eV     exponent
  1     Wed Apr 25 08:07:45 CEST 2018   EN: 2.200 GM2: 0.406  GM3: 0.0800  RAES: 1.40
     1s    -10.707211    1.230000
  6     Wed Apr 25 08:07:45 CEST 2018   EN: 2.550 GM2: 0.538  GM3: 0.1500  RAES: 3.00
     2s    -13.970922    2.096432
     2p    -10.063292    1.800000
  7     Wed Apr 25 08:07:45 CEST 2018   EN: 3.040 GM2: 0.461  GM3:-0.0640  RAES: 1.90
     2s    -16.686243    2.339881
     2p    -12.523956    2.014332
  8     Wed Apr 25 08:07:45 CEST 2018   EN: 3.440 GM2: 0.452  GM3:-0.0517  RAES: 1.80
     2s    -20.229985    2.439742
     2p    -15.503117    2.137023


            Z     q(EN)     CN     RAES       Cart. coordinates
     1  N   5.0   -0.46    2.01    1.90    -0.96490     0.84439    -1.45245
     2  C   4.0    0.34    3.06    3.02    -0.66643    -1.08694    -0.17167
     3  N   5.0   -0.11    2.01    1.90    -2.40685    -3.07325     0.12634
     4  N   5.0   -0.15    1.00    1.90    -3.21159    -4.56253     1.41763
     5  O   6.0   -0.11    1.04    1.80     2.19930    -3.81645    -2.03972
     6  N   5.0   -0.15    2.05    1.90     3.03712    -3.10917     0.11213
     7  C   4.0    0.14    3.04    3.02     1.67116    -1.64409     1.36857
     8  H   1.0    0.33    1.00    1.43    -2.45091     0.99247    -2.63224
     9  H   1.0    0.17    0.99    1.43     1.94522    -1.04583     3.33005

           ------------------------------------------------- 
          |        Self-Consistent Charge Iterations        |
           ------------------------------------------------- 
q/qsh data taken from xtbrestart
CAMM data taken from xtbrestart

          ...................................................
          :                      SETUP                      :
          :.................................................:
          :  # basis functions                  30          :
          :  # atomic orbitals                  30          :
          :  # shells                           16          :
          :  # electrons                        36          :
          :  max. iterations                   250          :
          :  Hamiltonian                  GFN2-xTB          :
          :  restarted?                       true          :
          :  GBSA solvation                  false          :
          :  PC potential                    false          :
          :  electronic temp.          300.0000000     K    :
          :  accuracy                    0.2000000          :
          :  -> integral cutoff          0.3198970E+02      :
          :  -> integral neglect         0.2000000E-08      :
          :  -> SCF convergence          0.2000000E-06 Eh   :
          :  -> wf. convergence          0.2000000E-04 e    :
          :  Broyden damping             0.4000000          :
          ...................................................

 iter      E             dE          RMSdq      gap      omega  full diag
   1    -20.9605049 -0.209605E+02  0.379E+00    0.23       0.0  T
   2    -20.9066476  0.538573E-01  0.390E+00    2.27       1.0  T
   3    -21.0348672 -0.128220E+00  0.157E+00    0.50       1.0  T
   4    -20.8128566  0.222011E+00  0.431E+00    0.04       1.0  T
   5    -21.0418123 -0.228956E+00  0.131E+00    0.48       1.0  T
   6    -21.0553581 -0.135458E-01  0.762E-01    0.30       1.0  T
   7    -21.0501397  0.521845E-02  0.911E-01    0.35       1.0  T
   8    -21.0546305 -0.449080E-02  0.675E-01    0.27       1.0  T
   9    -21.0553660 -0.735555E-03  0.614E-01    0.25       1.0  T
  10    -21.0592350 -0.386898E-02  0.112E-01    0.15       1.0  T
  11    -21.0592653 -0.302879E-04  0.207E-02    0.15       1.6  T
  12    -21.0591175  0.147778E-03  0.117E-01    0.16       1.0  T
  13    -21.0592682 -0.150620E-03  0.899E-03    0.14       3.7  T
  14    -21.0592587  0.946946E-05  0.314E-02    0.14       1.1  T
  15    -21.0592668 -0.807661E-05  0.149E-02    0.14       2.2  T
  16    -21.0592692 -0.241621E-05  0.139E-03    0.14      24.0  T
  17    -21.0592692 -0.241512E-07  0.138E-04    0.14     240.8  T
  18    -21.0592692  0.971895E-08  0.930E-04    0.14      35.8  T
  19    -21.0592692 -0.974156E-08  0.725E-05    0.14     459.7  T

   *** convergence criteria satisfied after 19 iterations ***

         #    Occupation            Energy/Eh            Energy/eV
      -------------------------------------------------------------
         1        2.0000           -0.7604045             -20.6917
       ...           ...                  ...                  ...
        12        2.0000           -0.5485208             -14.9260
        13        2.0000           -0.5325634             -14.4918
        14        2.0000           -0.5166119             -14.0577
        15        2.0000           -0.4800869             -13.0638
        16        2.0000           -0.4501891             -12.2503
        17        2.0000           -0.4141503             -11.2696
        18        1.8823           -0.3766766             -10.2499 (HOMO)
        19        0.1177           -0.3714101             -10.1066 (LUMO)
        20                         -0.3472818              -9.4500
        21                         -0.2550225              -6.9395
        22                         -0.2480807              -6.7506
        23                          0.0121328               0.3302
       ...                                ...                  ...
        30                          0.7466881              20.3184
      -------------------------------------------------------------
                  HL-Gap            0.0052664 Eh            0.1433 eV
             Fermi-level           -0.3740433 Eh          -10.1782 eV

 SCC (total)                   0 d,  0 h,  0 min,  0.009 sec
 SCC setup                      ...        0 min,  0.000 sec (  1.511%)
 Dispersion                     ...        0 min,  0.000 sec (  0.669%)
 integral evaluation            ...        0 min,  0.001 sec ( 12.403%)
 zeroth order Hamiltonian       ...        0 min,  0.000 sec (  0.347%)
 iterations                     ...        0 min,  0.005 sec ( 59.571%)
 molecular gradient             ...        0 min,  0.002 sec ( 23.120%)
 printout                       ...        0 min,  0.000 sec (  1.974%)

         :::::::::::::::::::::::::::::::::::::::::::::::::::::
         ::                     SUMMARY                     ::
         :::::::::::::::::::::::::::::::::::::::::::::::::::::
         :: total energy              -20.811959949481 Eh   ::
         :: gradient norm               0.065423989486 Eh/α ::
         :: HOMO-LUMO gap               0.143307105457 eV   ::
         ::.................................................::
         :: SCC energy                -21.059269203175 Eh   ::
         :: -> isotropic ES             0.041858621613 Eh   ::
         :: -> anisotropic ES           0.000291973067 Eh   ::
         :: -> anisotropic XC           0.027896923505 Eh   ::
         :: -> dispersion              -0.006157996303 Eh   ::
         :: repulsion energy            0.247303791584 Eh   ::
         :: add. restraining            0.000000000000 Eh   ::
         :::::::::::::::::::::::::::::::::::::::::::::::::::::

           -------------------------------------------------
          |                Property Printout                |
           -------------------------------------------------

    * Orbital Energies and Occupations

         #    Occupation            Energy/Eh            Energy/eV
      -------------------------------------------------------------
         1        2.0000           -0.7604045             -20.6917
       ...           ...                  ...                  ...
         6        2.0000           -0.6356065             -17.2957
         7        2.0000           -0.6272379             -17.0680
         8        2.0000           -0.6033897             -16.4191
         9        2.0000           -0.5826285             -15.8541
        10        2.0000           -0.5654437             -15.3865
        11        2.0000           -0.5529039             -15.0453
        12        2.0000           -0.5485208             -14.9260
        13        2.0000           -0.5325634             -14.4918
        14        2.0000           -0.5166119             -14.0577
        15        2.0000           -0.4800869             -13.0638
        16        2.0000           -0.4501891             -12.2503
        17        2.0000           -0.4141503             -11.2696
        18        1.8823           -0.3766766             -10.2499 (HOMO)
        19        0.1177           -0.3714101             -10.1066 (LUMO)
        20                         -0.3472818              -9.4500
        21                         -0.2550225              -6.9395
        22                         -0.2480807              -6.7506
        23                          0.0121328               0.3302
        24                          0.0299651               0.8154
        25                          0.0702365               1.9112
        26                          0.1671643               4.5488
        27                          0.3192082               8.6861
        28                          0.5309779              14.4486
        29                          0.6062805              16.4977
        30                          0.7466881              20.3184
      -------------------------------------------------------------
                  HL-Gap            0.0052664 Eh            0.1433 eV
             Fermi-level           -0.3740433 Eh          -10.1782 eV

   #   Z        covCN         q      C6AA      α(0)
   1   7 N      1.779    -0.243    27.154     7.717
   2   6 C      2.853     0.202    23.718     7.982
   3   7 N      1.903     0.136    19.548     6.555
   4   7 N      0.985    -0.049    21.833     6.720
   5   8 O      0.954    -0.389    21.411     6.206
   6   7 N      1.884     0.080    20.497     6.711
   7   6 C      2.852    -0.004    28.110     8.690
   8   1 H      0.860     0.194     1.137     1.670
   9   1 H      0.924     0.072     2.064     2.247

 Mol. C6AA /au·bohr⁶  :       1300.845197
 Mol. C8AA /au·bohr⁸  :      29698.609793
 Mol. α(0) /au        :         54.498416


Wiberg/Mayer (AO) data.
largest (>0.10) Wiberg bond orders for each atom
          total WBO             WBO to atom ...
     1  N   3.105        C    2 1.905    H    8 0.923    N    4 0.111
     2  C   3.914        N    1 1.905    N    3 0.967    C    7 0.875
     3  N   3.607        N    4 2.332    C    2 0.967
     4  N   2.878        N    3 2.332    O    5 0.143    N    6 0.138    N    1 0.111
     5  O   1.948        N    6 1.322    C    7 0.246    N    4 0.143
     6  N   3.334        C    7 1.720    O    5 1.322    N    4 0.138
     7  C   3.928        N    6 1.720    H    9 0.949    C    2 0.875    O    5 0.246
     8  H   0.962        N    1 0.923
     9  H   0.994        C    7 0.949

molecular dipole:
                 x           y           z       tot (Debye)
 q only:       -1.023       0.739       0.791
   full:       -1.294       0.759       0.813       4.336
molecular quadrupole (traceless):
                xx          xy          yy          xz          yz          zz
 q only:        2.623       3.792      -4.473       5.019      -4.807       1.850
  q+dip:        2.575       3.263      -6.275       6.778      -4.503       3.699
   full:        2.684       2.907      -6.472       6.575      -3.655       3.788


           -------------------------------------------------
          | TOTAL ENERGY              -20.811959949481 Eh   |
          | GRADIENT NORM               0.065423989486 Eh/α |
          | HOMO-LUMO GAP               0.143307105457 eV   |
           -------------------------------------------------

------------------------------------------------------------------------
 * finished run on 2021/06/02 at 10:00:07.591     
------------------------------------------------------------------------
 total:
 * wall-time:     0 d,  0 h,  0 min,  0.016 sec
 *  cpu-time:     0 d,  0 h,  0 min,  0.016 sec
 * ratio c/w:     0.987 speedup
 SCF:
 * wall-time:     0 d,  0 h,  0 min,  0.009 sec
 *  cpu-time:     0 d,  0 h,  0 min,  0.009 sec
 * ratio c/w:     1.000 speedup

