      -----------------------------------------------------------      
     |                   =====================                   |     
     |                           x T B                           |     
     |                   =====================                   |     
     |                         S. Grimme                         |     
     |          Mulliken Center for Theoretical Chemistry        |     
     |                    University of Bonn                     |     
     |                 Version 6.1.4 (SAW190525)                 |     
      -----------------------------------------------------------      

   This program is distributed in the hope that it will be useful,
   but WITHOUT ANY WARRANTY; without even the implied warranty of
   MERCHANTABILITY or FITNESS FOR A PARTICULAR PURPOSE.
   
   FOR NON-COMMERCIAL, ACADEMIA USE ONLY.
   
   Cite this work as:
   S. Grimme, C. Bannwarth, P. Shushkov, J. Comput. Theory Chem., 2017,
   13, 1989-2009. DOI: 10.1021/acs.jctc.7b00118
   C. Bannwarth, S. Ehlert and S. Grimme., J. Comput. Theory Chem., 2019,
   just accepted. DOI: 10.1021/acs.jctc.8b01176
   
   for sTDA-xTB:
   S. Grimme and C. Bannwarth, J. Chem. Phys., 2016, 145, 054103.
   DOI: 10.1063/1.4959605
   
   in the mass-spec context:
   V. Asgeirsson, C. Bauer and S. Grimme, Chem. Sci., 2017, 8, 4879.
   DOI: 10.1039/c7sc00601b
   
   for metadynamics refer to:
   S. Grimme, J. Chem. Theory Comput. Article ASAP, 2019,
   DOI: 10.1021/acs.jctc.9b00143
   
   with help from (in alphabetical order)
   C. Bannwarth, F. Bohle, G. Brandenburg, E. Caldeweyher, M. Checinski,
   S. Dohm, S. Ehlert, S. Ehrlich, F. März, H. Neugebauer, J. Pisarek,
   P. Pracht, P. Shushkov, and S. Spicher.
   
 * started run on 2021/06/02 at 10:00:07.617     

           -------------------------------------------------
          |                Calculation Setup                |
           -------------------------------------------------

          program call               : /groups/kemi/koerstz/opt/xtb/6.1/bin/xtb path_point_18.xyz --gfn2 --acc 0.2 --chrg 0
          hostname                   : node305
          coordinate file            : path_point_18.xyz
          omp threads                :                     1
          number of atoms            :                     9
          number of electrons        :                    36
          charge                     :                     0
          spin                       :                   0.0
          first test random number   :      0.23866123393467


########################################################################
# WARNING! Please study the warnings concerning your input carefully
#  - XTBPATH is not set, using XTBHOME instead
########################################################################

           ------------------------------------------------- 
          |                 G F N 2 - x T B                 |
          | Geometry, Frequencies, Noncovalent interactions |
          |            JCTC 2018 parametrisation            |
           ------------------------------------------------- 
             k(s)              :                1.8500
             k(p)              :                2.2300
             k(d)              :                2.2300
             k(f)              :                2.0000
             kEN (H0ij)        :               -2.0000
             D4 a1             :                0.5200
             D4 a2             :                5.0000
             D4 s6             :                1.0000
             D4 s8             :                2.7000
             D4 s9             :                5.0000
             alphaj            :                2.0000

  Z AO/shell   Hii/eV     exponent
  1     Wed Apr 25 08:07:45 CEST 2018   EN: 2.200 GM2: 0.406  GM3: 0.0800  RAES: 1.40
     1s    -10.707211    1.230000
  6     Wed Apr 25 08:07:45 CEST 2018   EN: 2.550 GM2: 0.538  GM3: 0.1500  RAES: 3.00
     2s    -13.970922    2.096432
     2p    -10.063292    1.800000
  7     Wed Apr 25 08:07:45 CEST 2018   EN: 3.040 GM2: 0.461  GM3:-0.0640  RAES: 1.90
     2s    -16.686243    2.339881
     2p    -12.523956    2.014332
  8     Wed Apr 25 08:07:45 CEST 2018   EN: 3.440 GM2: 0.452  GM3:-0.0517  RAES: 1.80
     2s    -20.229985    2.439742
     2p    -15.503117    2.137023


            Z     q(EN)     CN     RAES       Cart. coordinates
     1  N   5.0   -0.45    2.01    1.90    -0.95955     0.81532    -1.48680
     2  C   4.0    0.34    3.05    3.02    -0.68421    -1.08478    -0.15617
     3  N   5.0   -0.12    2.01    1.90    -2.46438    -3.03541     0.18230
     4  N   5.0   -0.15    1.00    1.90    -3.25216    -4.52629     1.51526
     5  O   6.0   -0.11    1.03    1.80     2.35541    -3.73664    -2.11104
     6  N   5.0   -0.15    2.05    1.90     3.07200    -3.07774     0.07908
     7  C   4.0    0.14    3.03    3.02     1.65151    -1.67828     1.35989
     8  H   1.0    0.33    1.00    1.43    -2.46043     0.96034    -2.66327
     9  H   1.0    0.17    0.99    1.43     1.89393    -1.13792     3.33939

           ------------------------------------------------- 
          |        Self-Consistent Charge Iterations        |
           ------------------------------------------------- 
q/qsh data taken from xtbrestart
CAMM data taken from xtbrestart

          ...................................................
          :                      SETUP                      :
          :.................................................:
          :  # basis functions                  30          :
          :  # atomic orbitals                  30          :
          :  # shells                           16          :
          :  # electrons                        36          :
          :  max. iterations                   250          :
          :  Hamiltonian                  GFN2-xTB          :
          :  restarted?                       true          :
          :  GBSA solvation                  false          :
          :  PC potential                    false          :
          :  electronic temp.          300.0000000     K    :
          :  accuracy                    0.2000000          :
          :  -> integral cutoff          0.3198970E+02      :
          :  -> integral neglect         0.2000000E-08      :
          :  -> SCF convergence          0.2000000E-06 Eh   :
          :  -> wf. convergence          0.2000000E-04 e    :
          :  Broyden damping             0.4000000          :
          ...................................................

 iter      E             dE          RMSdq      gap      omega  full diag
   1    -20.6825160 -0.206825E+02  0.574E+00    0.24       0.0  T
   2    -20.7410881 -0.585720E-01  0.610E+00    1.93       1.0  T
   3    -20.9383566 -0.197269E+00  0.332E+00    2.10       1.0  T
   4    -20.9958953 -0.575386E-01  0.230E+00    0.97       1.0  T
   5    -21.0510198 -0.551245E-01  0.104E+00    0.20       1.0  T
   6    -21.0349901  0.160296E-01  0.137E+00    0.44       1.0  T
   7    -21.0523299 -0.173397E-01  0.542E-01    0.13       1.0  T
   8    -20.8643125  0.188017E+00  0.395E+00    0.05       1.0  T
   9    -21.0535441 -0.189232E+00  0.459E-01    0.19       1.0  T
  10    -21.0524774  0.106661E-02  0.445E-01    0.11       1.0  T
  11    -21.0544783 -0.200090E-02  0.262E-01    0.16       1.0  T
  12    -21.0546790 -0.200692E-03  0.214E-01    0.15       1.0  T
  13    -21.0546939 -0.148926E-04  0.195E-01    0.15       1.0  T
  14    -21.0550099 -0.315993E-03  0.995E-02    0.14       1.0  T
  15    -21.0549447  0.652093E-04  0.120E-01    0.14       1.0  T
  16    -21.0550850 -0.140242E-03  0.430E-02    0.14       1.0  T
  17    -21.0551010 -0.160449E-04  0.139E-02    0.13       2.4  T
  18    -21.0551028 -0.182682E-05  0.251E-03    0.13      13.3  T
  19    -21.0551029 -0.465447E-07  0.287E-04    0.13     116.0  T
  20    -21.0551029  0.165371E-08  0.478E-04    0.13      69.8  T
  21    -21.0551029 -0.253680E-08  0.132E-04    0.13     252.8  T
  22    -21.0551029 -0.167343E-09  0.636E-05    0.13     524.1  T

   *** convergence criteria satisfied after 22 iterations ***

         #    Occupation            Energy/Eh            Energy/eV
      -------------------------------------------------------------
         1        2.0000           -0.7544801             -20.5304
       ...           ...                  ...                  ...
        12        2.0000           -0.5485288             -14.9262
        13        2.0000           -0.5300744             -14.4241
        14        2.0000           -0.5171363             -14.0720
        15        2.0000           -0.4837995             -13.1649
        16        2.0000           -0.4502136             -12.2509
        17        2.0000           -0.4146816             -11.2841
        18        1.8555           -0.3763444             -10.2409 (HOMO)
        19        0.1445           -0.3714937             -10.1089 (LUMO)
        20                         -0.3490803              -9.4990
        21                         -0.2530995              -6.8872
        22                         -0.2522685              -6.8646
        23                          0.0129688               0.3529
       ...                                ...                  ...
        30                          0.7041325              19.1604
      -------------------------------------------------------------
                  HL-Gap            0.0048506 Eh            0.1320 eV
             Fermi-level           -0.3739191 Eh          -10.1749 eV

 SCC (total)                   0 d,  0 h,  0 min,  0.009 sec
 SCC setup                      ...        0 min,  0.000 sec (  1.386%)
 Dispersion                     ...        0 min,  0.000 sec (  0.601%)
 integral evaluation            ...        0 min,  0.001 sec ( 11.509%)
 zeroth order Hamiltonian       ...        0 min,  0.000 sec (  0.332%)
 iterations                     ...        0 min,  0.006 sec ( 62.401%)
 molecular gradient             ...        0 min,  0.002 sec ( 21.479%)
 printout                       ...        0 min,  0.000 sec (  1.911%)

         :::::::::::::::::::::::::::::::::::::::::::::::::::::
         ::                     SUMMARY                     ::
         :::::::::::::::::::::::::::::::::::::::::::::::::::::
         :: total energy              -20.813895338514 Eh   ::
         :: gradient norm               0.059931476320 Eh/α ::
         :: HOMO-LUMO gap               0.131992345072 eV   ::
         ::.................................................::
         :: SCC energy                -21.055102873567 Eh   ::
         :: -> isotropic ES             0.040355727245 Eh   ::
         :: -> anisotropic ES           0.000577522747 Eh   ::
         :: -> anisotropic XC           0.027513860526 Eh   ::
         :: -> dispersion              -0.006124603983 Eh   ::
         :: repulsion energy            0.241201875596 Eh   ::
         :: add. restraining            0.000000000000 Eh   ::
         :::::::::::::::::::::::::::::::::::::::::::::::::::::

           -------------------------------------------------
          |                Property Printout                |
           -------------------------------------------------

    * Orbital Energies and Occupations

         #    Occupation            Energy/Eh            Energy/eV
      -------------------------------------------------------------
         1        2.0000           -0.7544801             -20.5304
       ...           ...                  ...                  ...
         6        2.0000           -0.6349782             -17.2786
         7        2.0000           -0.6221451             -16.9294
         8        2.0000           -0.5995208             -16.3138
         9        2.0000           -0.5833947             -15.8750
        10        2.0000           -0.5663778             -15.4119
        11        2.0000           -0.5567556             -15.1501
        12        2.0000           -0.5485288             -14.9262
        13        2.0000           -0.5300744             -14.4241
        14        2.0000           -0.5171363             -14.0720
        15        2.0000           -0.4837995             -13.1649
        16        2.0000           -0.4502136             -12.2509
        17        2.0000           -0.4146816             -11.2841
        18        1.8555           -0.3763444             -10.2409 (HOMO)
        19        0.1445           -0.3714937             -10.1089 (LUMO)
        20                         -0.3490803              -9.4990
        21                         -0.2530995              -6.8872
        22                         -0.2522685              -6.8646
        23                          0.0129688               0.3529
        24                          0.0257808               0.7015
        25                          0.0749206               2.0387
        26                          0.1672247               4.5504
        27                          0.3281218               8.9286
        28                          0.5275199              14.3545
        29                          0.6019280              16.3793
        30                          0.7041325              19.1604
      -------------------------------------------------------------
                  HL-Gap            0.0048506 Eh            0.1320 eV
             Fermi-level           -0.3739191 Eh          -10.1749 eV

   #   Z        covCN         q      C6AA      α(0)
   1   7 N      1.779    -0.239    27.056     7.703
   2   6 C      2.843     0.200    23.742     7.985
   3   7 N      1.903     0.119    19.823     6.601
   4   7 N      0.984    -0.057    21.983     6.743
   5   8 O      0.948    -0.385    21.336     6.195
   6   7 N      1.876     0.100    20.158     6.655
   7   6 C      2.849    -0.010    28.255     8.712
   8   1 H      0.860     0.195     1.131     1.666
   9   1 H      0.924     0.075     2.032     2.229

 Mol. C6AA /au·bohr⁶  :       1300.423549
 Mol. C8AA /au·bohr⁸  :      29699.333899
 Mol. α(0) /au        :         54.490281


Wiberg/Mayer (AO) data.
largest (>0.10) Wiberg bond orders for each atom
          total WBO             WBO to atom ...
     1  N   3.094        C    2 1.911    H    8 0.922    N    4 0.109
     2  C   3.910        N    1 1.911    N    3 0.972    C    7 0.880
     3  N   3.578        N    4 2.311    C    2 0.972
     4  N   2.836        N    3 2.311    N    6 0.140    O    5 0.130    N    1 0.109
     5  O   1.916        N    6 1.353    C    7 0.267    N    4 0.130
     6  N   3.370        C    7 1.701    O    5 1.353    N    4 0.140
     7  C   3.924        N    6 1.701    H    9 0.948    C    2 0.880    O    5 0.267
     8  H   0.962        N    1 0.922
     9  H   0.994        C    7 0.948

molecular dipole:
                 x           y           z       tot (Debye)
 q only:       -0.972       0.732       0.797
   full:       -1.226       0.742       0.825       4.203
molecular quadrupole (traceless):
                xx          xy          yy          xz          yz          zz
 q only:        2.391       3.364      -4.197       5.363      -4.764       1.805
  q+dip:        2.450       2.736      -5.908       7.301      -4.501       3.458
   full:        2.573       2.275      -5.986       7.051      -3.614       3.412


           -------------------------------------------------
          | TOTAL ENERGY              -20.813895338514 Eh   |
          | GRADIENT NORM               0.059931476320 Eh/α |
          | HOMO-LUMO GAP               0.131992345072 eV   |
           -------------------------------------------------

------------------------------------------------------------------------
 * finished run on 2021/06/02 at 10:00:07.634     
------------------------------------------------------------------------
 total:
 * wall-time:     0 d,  0 h,  0 min,  0.017 sec
 *  cpu-time:     0 d,  0 h,  0 min,  0.017 sec
 * ratio c/w:     0.989 speedup
 SCF:
 * wall-time:     0 d,  0 h,  0 min,  0.009 sec
 *  cpu-time:     0 d,  0 h,  0 min,  0.009 sec
 * ratio c/w:     0.999 speedup

