      -----------------------------------------------------------      
     |                   =====================                   |     
     |                           x T B                           |     
     |                   =====================                   |     
     |                         S. Grimme                         |     
     |          Mulliken Center for Theoretical Chemistry        |     
     |                    University of Bonn                     |     
     |                 Version 6.1.4 (SAW190525)                 |     
      -----------------------------------------------------------      

   This program is distributed in the hope that it will be useful,
   but WITHOUT ANY WARRANTY; without even the implied warranty of
   MERCHANTABILITY or FITNESS FOR A PARTICULAR PURPOSE.
   
   FOR NON-COMMERCIAL, ACADEMIA USE ONLY.
   
   Cite this work as:
   S. Grimme, C. Bannwarth, P. Shushkov, J. Comput. Theory Chem., 2017,
   13, 1989-2009. DOI: 10.1021/acs.jctc.7b00118
   C. Bannwarth, S. Ehlert and S. Grimme., J. Comput. Theory Chem., 2019,
   just accepted. DOI: 10.1021/acs.jctc.8b01176
   
   for sTDA-xTB:
   S. Grimme and C. Bannwarth, J. Chem. Phys., 2016, 145, 054103.
   DOI: 10.1063/1.4959605
   
   in the mass-spec context:
   V. Asgeirsson, C. Bauer and S. Grimme, Chem. Sci., 2017, 8, 4879.
   DOI: 10.1039/c7sc00601b
   
   for metadynamics refer to:
   S. Grimme, J. Chem. Theory Comput. Article ASAP, 2019,
   DOI: 10.1021/acs.jctc.9b00143
   
   with help from (in alphabetical order)
   C. Bannwarth, F. Bohle, G. Brandenburg, E. Caldeweyher, M. Checinski,
   S. Dohm, S. Ehlert, S. Ehrlich, F. März, H. Neugebauer, J. Pisarek,
   P. Pracht, P. Shushkov, and S. Spicher.
   
 * started run on 2021/06/02 at 10:00:07.723     

           -------------------------------------------------
          |                Calculation Setup                |
           -------------------------------------------------

          program call               : /groups/kemi/koerstz/opt/xtb/6.1/bin/xtb path_point_16.xyz --gfn2 --acc 0.2 --chrg 0
          hostname                   : node305
          coordinate file            : path_point_16.xyz
          omp threads                :                     1
          number of atoms            :                     9
          number of electrons        :                    36
          charge                     :                     0
          spin                       :                   0.0
          first test random number   :      0.52160099816326


########################################################################
# WARNING! Please study the warnings concerning your input carefully
#  - XTBPATH is not set, using XTBHOME instead
########################################################################

           ------------------------------------------------- 
          |                 G F N 2 - x T B                 |
          | Geometry, Frequencies, Noncovalent interactions |
          |            JCTC 2018 parametrisation            |
           ------------------------------------------------- 
             k(s)              :                1.8500
             k(p)              :                2.2300
             k(d)              :                2.2300
             k(f)              :                2.0000
             kEN (H0ij)        :               -2.0000
             D4 a1             :                0.5200
             D4 a2             :                5.0000
             D4 s6             :                1.0000
             D4 s8             :                2.7000
             D4 s9             :                5.0000
             alphaj            :                2.0000

  Z AO/shell   Hii/eV     exponent
  1     Wed Apr 25 08:07:45 CEST 2018   EN: 2.200 GM2: 0.406  GM3: 0.0800  RAES: 1.40
     1s    -10.707211    1.230000
  6     Wed Apr 25 08:07:45 CEST 2018   EN: 2.550 GM2: 0.538  GM3: 0.1500  RAES: 3.00
     2s    -13.970922    2.096432
     2p    -10.063292    1.800000
  7     Wed Apr 25 08:07:45 CEST 2018   EN: 3.040 GM2: 0.461  GM3:-0.0640  RAES: 1.90
     2s    -16.686243    2.339881
     2p    -12.523956    2.014332
  8     Wed Apr 25 08:07:45 CEST 2018   EN: 3.440 GM2: 0.452  GM3:-0.0517  RAES: 1.80
     2s    -20.229985    2.439742
     2p    -15.503117    2.137023


            Z     q(EN)     CN     RAES       Cart. coordinates
     1  N   5.0   -0.46    2.01    1.90    -0.96223     0.82985    -1.46963
     2  C   4.0    0.34    3.05    3.02    -0.67532    -1.08586    -0.16392
     3  N   5.0   -0.12    2.01    1.90    -2.43561    -3.05433     0.15432
     4  N   5.0   -0.15    1.00    1.90    -3.23188    -4.54441     1.46644
     5  O   6.0   -0.11    1.03    1.80     2.27735    -3.77654    -2.07538
     6  N   5.0   -0.15    2.05    1.90     3.05456    -3.09346     0.09561
     7  C   4.0    0.14    3.03    3.02     1.66133    -1.66118     1.36423
     8  H   1.0    0.33    1.00    1.43    -2.45567     0.97640    -2.64776
     9  H   1.0    0.17    0.99    1.43     1.91957    -1.09187     3.33472

           ------------------------------------------------- 
          |        Self-Consistent Charge Iterations        |
           ------------------------------------------------- 
q/qsh data taken from xtbrestart
CAMM data taken from xtbrestart

          ...................................................
          :                      SETUP                      :
          :.................................................:
          :  # basis functions                  30          :
          :  # atomic orbitals                  30          :
          :  # shells                           16          :
          :  # electrons                        36          :
          :  max. iterations                   250          :
          :  Hamiltonian                  GFN2-xTB          :
          :  restarted?                       true          :
          :  GBSA solvation                  false          :
          :  PC potential                    false          :
          :  electronic temp.          300.0000000     K    :
          :  accuracy                    0.2000000          :
          :  -> integral cutoff          0.3198970E+02      :
          :  -> integral neglect         0.2000000E-08      :
          :  -> SCF convergence          0.2000000E-06 Eh   :
          :  -> wf. convergence          0.2000000E-04 e    :
          :  Broyden damping             0.4000000          :
          ...................................................

 iter      E             dE          RMSdq      gap      omega  full diag
   1    -21.0352170 -0.210352E+02  0.140E+00    0.34       0.0  T
   2    -20.2758181  0.759399E+00  0.763E+00    0.35       1.0  T
   3    -21.0554763 -0.779658E+00  0.585E-01    0.17       1.0  T
   4    -21.0534214  0.205490E-02  0.567E-01    0.19       1.0  T
   5    -21.0568619 -0.344048E-02  0.222E-01    0.13       1.0  T
   6    -21.0571375 -0.275591E-03  0.938E-02    0.14       1.0  T
   7    -21.0571454 -0.789247E-05  0.511E-02    0.13       1.0  T
   8    -21.0571609 -0.154689E-04  0.161E-02    0.13       2.1  T
   9    -21.0571596  0.127498E-05  0.143E-02    0.13       2.3  T
  10    -21.0571618 -0.221049E-05  0.165E-03    0.13      20.2  T
  11    -21.0571618 -0.199069E-08  0.117E-03    0.13      28.5  T
  12    -21.0571618 -0.126300E-07  0.360E-04    0.13      92.6  T
  13    -21.0571618  0.853191E-09  0.336E-04    0.13      99.3  T
  14    -21.0571618 -0.119264E-08  0.107E-04    0.13     312.3  T
  15    -21.0571618  0.475708E-11  0.862E-05    0.13     386.8  T

   *** convergence criteria satisfied after 15 iterations ***

         #    Occupation            Energy/Eh            Energy/eV
      -------------------------------------------------------------
         1        2.0000           -0.7573445             -20.6084
       ...           ...                  ...                  ...
        12        2.0000           -0.5485447             -14.9267
        13        2.0000           -0.5312694             -14.4566
        14        2.0000           -0.5170482             -14.0696
        15        2.0000           -0.4819670             -13.1150
        16        2.0000           -0.4503196             -12.2538
        17        2.0000           -0.4142431             -11.2721
        18        1.8515           -0.3762943             -10.2395 (HOMO)
        19        0.1485           -0.3715004             -10.1090 (LUMO)
        20                         -0.3481325              -9.4732
        21                         -0.2538863              -6.9086
        22                         -0.2502332              -6.8092
        23                          0.0126841               0.3452
       ...                                ...                  ...
        30                          0.7254389              19.7402
      -------------------------------------------------------------
                  HL-Gap            0.0047939 Eh            0.1304 eV
             Fermi-level           -0.3738974 Eh          -10.1743 eV

 SCC (total)                   0 d,  0 h,  0 min,  0.008 sec
 SCC setup                      ...        0 min,  0.000 sec (  1.609%)
 Dispersion                     ...        0 min,  0.000 sec (  0.811%)
 integral evaluation            ...        0 min,  0.001 sec ( 14.039%)
 zeroth order Hamiltonian       ...        0 min,  0.000 sec (  0.393%)
 iterations                     ...        0 min,  0.004 sec ( 54.724%)
 molecular gradient             ...        0 min,  0.002 sec ( 25.773%)
 printout                       ...        0 min,  0.000 sec (  2.224%)

         :::::::::::::::::::::::::::::::::::::::::::::::::::::
         ::                     SUMMARY                     ::
         :::::::::::::::::::::::::::::::::::::::::::::::::::::
         :: total energy              -20.812752160063 Eh   ::
         :: gradient norm               0.060443997640 Eh/α ::
         :: HOMO-LUMO gap               0.130448842850 eV   ::
         ::.................................................::
         :: SCC energy                -21.057161803491 Eh   ::
         :: -> isotropic ES             0.041125681607 Eh   ::
         :: -> anisotropic ES           0.000432045134 Eh   ::
         :: -> anisotropic XC           0.027622056297 Eh   ::
         :: -> dispersion              -0.006141962507 Eh   ::
         :: repulsion energy            0.244404084366 Eh   ::
         :: add. restraining            0.000000000000 Eh   ::
         :::::::::::::::::::::::::::::::::::::::::::::::::::::

           -------------------------------------------------
          |                Property Printout                |
           -------------------------------------------------

    * Orbital Energies and Occupations

         #    Occupation            Energy/Eh            Energy/eV
      -------------------------------------------------------------
         1        2.0000           -0.7573445             -20.6084
       ...           ...                  ...                  ...
         6        2.0000           -0.6351947             -17.2845
         7        2.0000           -0.6246327             -16.9971
         8        2.0000           -0.6014772             -16.3670
         9        2.0000           -0.5830023             -15.8643
        10        2.0000           -0.5659617             -15.4006
        11        2.0000           -0.5548137             -15.0972
        12        2.0000           -0.5485447             -14.9267
        13        2.0000           -0.5312694             -14.4566
        14        2.0000           -0.5170482             -14.0696
        15        2.0000           -0.4819670             -13.1150
        16        2.0000           -0.4503196             -12.2538
        17        2.0000           -0.4142431             -11.2721
        18        1.8515           -0.3762943             -10.2395 (HOMO)
        19        0.1485           -0.3715004             -10.1090 (LUMO)
        20                         -0.3481325              -9.4732
        21                         -0.2538863              -6.9086
        22                         -0.2502332              -6.8092
        23                          0.0126841               0.3452
        24                          0.0279654               0.7610
        25                          0.0732889               1.9943
        26                          0.1672074               4.5499
        27                          0.3243435               8.8258
        28                          0.5298892              14.4190
        29                          0.6041666              16.4402
        30                          0.7254389              19.7402
      -------------------------------------------------------------
                  HL-Gap            0.0047939 Eh            0.1304 eV
             Fermi-level           -0.3738974 Eh          -10.1743 eV

   #   Z        covCN         q      C6AA      α(0)
   1   7 N      1.779    -0.240    27.093     7.708
   2   6 C      2.848     0.202    23.723     7.983
   3   7 N      1.903     0.127    19.695     6.580
   4   7 N      0.984    -0.053    21.909     6.732
   5   8 O      0.951    -0.387    21.383     6.202
   6   7 N      1.880     0.091    20.316     6.682
   7   6 C      2.850    -0.007    28.190     8.702
   8   1 H      0.860     0.195     1.133     1.667
   9   1 H      0.924     0.073     2.049     2.239

 Mol. C6AA /au·bohr⁶  :       1300.634683
 Mol. C8AA /au·bohr⁸  :      29698.898207
 Mol. α(0) /au        :         54.494227


Wiberg/Mayer (AO) data.
largest (>0.10) Wiberg bond orders for each atom
          total WBO             WBO to atom ...
     1  N   3.093        C    2 1.910    H    8 0.922    N    4 0.110
     2  C   3.909        N    1 1.910    N    3 0.969    C    7 0.877
     3  N   3.584        N    4 2.319    C    2 0.969
     4  N   2.842        N    3 2.319    N    6 0.136    O    5 0.129    N    1 0.110
     5  O   1.917        N    6 1.338    C    7 0.258    N    4 0.129
     6  N   3.345        C    7 1.711    O    5 1.338    N    4 0.136
     7  C   3.925        N    6 1.711    H    9 0.948    C    2 0.877    O    5 0.258
     8  H   0.962        N    1 0.922
     9  H   0.994        C    7 0.948

molecular dipole:
                 x           y           z       tot (Debye)
 q only:       -0.998       0.738       0.793
   full:       -1.259       0.753       0.819       4.271
molecular quadrupole (traceless):
                xx          xy          yy          xz          yz          zz
 q only:        2.513       3.572      -4.343       5.194      -4.794       1.829
  q+dip:        2.525       2.985      -6.099       7.043      -4.517       3.574
   full:        2.637       2.574      -6.234       6.817      -3.647       3.597


           -------------------------------------------------
          | TOTAL ENERGY              -20.812752160063 Eh   |
          | GRADIENT NORM               0.060443997640 Eh/α |
          | HOMO-LUMO GAP               0.130448842850 eV   |
           -------------------------------------------------

------------------------------------------------------------------------
 * finished run on 2021/06/02 at 10:00:07.738     
------------------------------------------------------------------------
 total:
 * wall-time:     0 d,  0 h,  0 min,  0.015 sec
 *  cpu-time:     0 d,  0 h,  0 min,  0.015 sec
 * ratio c/w:     0.986 speedup
 SCF:
 * wall-time:     0 d,  0 h,  0 min,  0.008 sec
 *  cpu-time:     0 d,  0 h,  0 min,  0.008 sec
 * ratio c/w:     1.000 speedup

