      -----------------------------------------------------------      
     |                   =====================                   |     
     |                           x T B                           |     
     |                   =====================                   |     
     |                         S. Grimme                         |     
     |          Mulliken Center for Theoretical Chemistry        |     
     |                    University of Bonn                     |     
     |                 Version 6.1.4 (SAW190525)                 |     
      -----------------------------------------------------------      

   This program is distributed in the hope that it will be useful,
   but WITHOUT ANY WARRANTY; without even the implied warranty of
   MERCHANTABILITY or FITNESS FOR A PARTICULAR PURPOSE.
   
   FOR NON-COMMERCIAL, ACADEMIA USE ONLY.
   
   Cite this work as:
   S. Grimme, C. Bannwarth, P. Shushkov, J. Comput. Theory Chem., 2017,
   13, 1989-2009. DOI: 10.1021/acs.jctc.7b00118
   C. Bannwarth, S. Ehlert and S. Grimme., J. Comput. Theory Chem., 2019,
   just accepted. DOI: 10.1021/acs.jctc.8b01176
   
   for sTDA-xTB:
   S. Grimme and C. Bannwarth, J. Chem. Phys., 2016, 145, 054103.
   DOI: 10.1063/1.4959605
   
   in the mass-spec context:
   V. Asgeirsson, C. Bauer and S. Grimme, Chem. Sci., 2017, 8, 4879.
   DOI: 10.1039/c7sc00601b
   
   for metadynamics refer to:
   S. Grimme, J. Chem. Theory Comput. Article ASAP, 2019,
   DOI: 10.1021/acs.jctc.9b00143
   
   with help from (in alphabetical order)
   C. Bannwarth, F. Bohle, G. Brandenburg, E. Caldeweyher, M. Checinski,
   S. Dohm, S. Ehlert, S. Ehrlich, F. März, H. Neugebauer, J. Pisarek,
   P. Pracht, P. Shushkov, and S. Spicher.
   
 * started run on 2021/06/02 at 10:00:07.659     

           -------------------------------------------------
          |                Calculation Setup                |
           -------------------------------------------------

          program call               : /groups/kemi/koerstz/opt/xtb/6.1/bin/xtb path_point_17.xyz --gfn2 --acc 0.2 --chrg 0
          hostname                   : node305
          coordinate file            : path_point_17.xyz
          omp threads                :                     1
          number of atoms            :                     9
          number of electrons        :                    36
          charge                     :                     0
          spin                       :                   0.0
          first test random number   :      0.56135076364261


########################################################################
# WARNING! Please study the warnings concerning your input carefully
#  - XTBPATH is not set, using XTBHOME instead
########################################################################

           ------------------------------------------------- 
          |                 G F N 2 - x T B                 |
          | Geometry, Frequencies, Noncovalent interactions |
          |            JCTC 2018 parametrisation            |
           ------------------------------------------------- 
             k(s)              :                1.8500
             k(p)              :                2.2300
             k(d)              :                2.2300
             k(f)              :                2.0000
             kEN (H0ij)        :               -2.0000
             D4 a1             :                0.5200
             D4 a2             :                5.0000
             D4 s6             :                1.0000
             D4 s8             :                2.7000
             D4 s9             :                5.0000
             alphaj            :                2.0000

  Z AO/shell   Hii/eV     exponent
  1     Wed Apr 25 08:07:45 CEST 2018   EN: 2.200 GM2: 0.406  GM3: 0.0800  RAES: 1.40
     1s    -10.707211    1.230000
  6     Wed Apr 25 08:07:45 CEST 2018   EN: 2.550 GM2: 0.538  GM3: 0.1500  RAES: 3.00
     2s    -13.970922    2.096432
     2p    -10.063292    1.800000
  7     Wed Apr 25 08:07:45 CEST 2018   EN: 3.040 GM2: 0.461  GM3:-0.0640  RAES: 1.90
     2s    -16.686243    2.339881
     2p    -12.523956    2.014332
  8     Wed Apr 25 08:07:45 CEST 2018   EN: 3.440 GM2: 0.452  GM3:-0.0517  RAES: 1.80
     2s    -20.229985    2.439742
     2p    -15.503117    2.137023


            Z     q(EN)     CN     RAES       Cart. coordinates
     1  N   5.0   -0.45    2.01    1.90    -0.96089     0.82258    -1.47822
     2  C   4.0    0.34    3.05    3.02    -0.67976    -1.08532    -0.16005
     3  N   5.0   -0.12    2.01    1.90    -2.44999    -3.04487     0.16831
     4  N   5.0   -0.15    1.00    1.90    -3.24202    -4.53535     1.49085
     5  O   6.0   -0.11    1.03    1.80     2.31638    -3.75659    -2.09321
     6  N   5.0   -0.15    2.05    1.90     3.06328    -3.08560     0.08735
     7  C   4.0    0.14    3.03    3.02     1.65642    -1.66973     1.36206
     8  H   1.0    0.33    1.00    1.43    -2.45805     0.96837    -2.65551
     9  H   1.0    0.17    0.99    1.43     1.90675    -1.11490     3.33705

           ------------------------------------------------- 
          |        Self-Consistent Charge Iterations        |
           ------------------------------------------------- 
q/qsh data taken from xtbrestart
CAMM data taken from xtbrestart

          ...................................................
          :                      SETUP                      :
          :.................................................:
          :  # basis functions                  30          :
          :  # atomic orbitals                  30          :
          :  # shells                           16          :
          :  # electrons                        36          :
          :  max. iterations                   250          :
          :  Hamiltonian                  GFN2-xTB          :
          :  restarted?                       true          :
          :  GBSA solvation                  false          :
          :  PC potential                    false          :
          :  electronic temp.          300.0000000     K    :
          :  accuracy                    0.2000000          :
          :  -> integral cutoff          0.3198970E+02      :
          :  -> integral neglect         0.2000000E-08      :
          :  -> SCF convergence          0.2000000E-06 Eh   :
          :  -> wf. convergence          0.2000000E-04 e    :
          :  Broyden damping             0.4000000          :
          ...................................................

 iter      E             dE          RMSdq      gap      omega  full diag
   1    -20.7409883 -0.207410E+02  0.540E+00    0.21       0.0  T
   2    -20.7709889 -0.300006E-01  0.575E+00    2.23       1.0  T
   3    -20.9510697 -0.180081E+00  0.311E+00    1.87       1.0  T
   4    -21.0109721 -0.599024E-01  0.202E+00    0.78       1.0  T
   5    -21.0431199 -0.321478E-01  0.118E+00    0.12       1.0  T
   6    -21.0178980  0.252219E-01  0.177E+00    0.58       1.0  T
   7    -21.0545744 -0.366764E-01  0.402E-01    0.17       1.0  T
   8    -21.0295498  0.250247E-01  0.152E+00    0.05       1.0  T
   9    -21.0560990 -0.265493E-01  0.783E-02    0.13       1.0  T
  10    -21.0560815  0.175492E-04  0.741E-02    0.12       1.0  T
  11    -21.0560973 -0.158245E-04  0.530E-02    0.13       1.0  T
  12    -21.0561152 -0.179293E-04  0.358E-02    0.13       1.0  T
  13    -21.0561267 -0.115045E-04  0.145E-02    0.13       2.3  T
  14    -21.0561264  0.371357E-06  0.154E-02    0.13       2.2  T
  15    -21.0561291 -0.275522E-05  0.497E-03    0.13       6.7  T
  16    -21.0561294 -0.227704E-06  0.219E-03    0.13      15.2  T
  17    -21.0561294 -0.443355E-07  0.986E-04    0.13      33.8  T
  18    -21.0561294 -0.930003E-08  0.396E-04    0.13      84.1  T
  19    -21.0561294 -0.184920E-08  0.491E-05    0.13     678.6  T
  20    -21.0561294 -0.185878E-10  0.278E-05    0.13    1197.1  T

   *** convergence criteria satisfied after 20 iterations ***

         #    Occupation            Energy/Eh            Energy/eV
      -------------------------------------------------------------
         1        2.0000           -0.7558824             -20.5686
       ...           ...                  ...                  ...
        12        2.0000           -0.5485411             -14.9266
        13        2.0000           -0.5306517             -14.4398
        14        2.0000           -0.5171399             -14.0721
        15        2.0000           -0.4828892             -13.1401
        16        2.0000           -0.4502981             -12.2532
        17        2.0000           -0.4144173             -11.2769
        18        1.8490           -0.3762639             -10.2387 (HOMO)
        19        0.1510           -0.3715037             -10.1091 (LUMO)
        20                         -0.3485917              -9.4857
        21                         -0.2533961              -6.8953
        22                         -0.2513231              -6.8388
        23                          0.0128540               0.3498
       ...                                ...                  ...
        30                          0.7147959              19.4506
      -------------------------------------------------------------
                  HL-Gap            0.0047603 Eh            0.1295 eV
             Fermi-level           -0.3738838 Eh          -10.1739 eV

 SCC (total)                   0 d,  0 h,  0 min,  0.009 sec
 SCC setup                      ...        0 min,  0.000 sec (  1.513%)
 Dispersion                     ...        0 min,  0.000 sec (  0.671%)
 integral evaluation            ...        0 min,  0.001 sec ( 12.335%)
 zeroth order Hamiltonian       ...        0 min,  0.000 sec (  0.342%)
 iterations                     ...        0 min,  0.005 sec ( 60.415%)
 molecular gradient             ...        0 min,  0.002 sec ( 22.430%)
 printout                       ...        0 min,  0.000 sec (  1.925%)

         :::::::::::::::::::::::::::::::::::::::::::::::::::::
         ::                     SUMMARY                     ::
         :::::::::::::::::::::::::::::::::::::::::::::::::::::
         :: total energy              -20.813282760763 Eh   ::
         :: gradient norm               0.059632038802 Eh/α ::
         :: HOMO-LUMO gap               0.129533524180 eV   ::
         ::.................................................::
         :: SCC energy                -21.056129412297 Eh   ::
         :: -> isotropic ES             0.040751218726 Eh   ::
         :: -> anisotropic ES           0.000503113490 Eh   ::
         :: -> anisotropic XC           0.027547581697 Eh   ::
         :: -> dispersion              -0.006133436291 Eh   ::
         :: repulsion energy            0.242841042345 Eh   ::
         :: add. restraining            0.000000000000 Eh   ::
         :::::::::::::::::::::::::::::::::::::::::::::::::::::

           -------------------------------------------------
          |                Property Printout                |
           -------------------------------------------------

    * Orbital Energies and Occupations

         #    Occupation            Energy/Eh            Energy/eV
      -------------------------------------------------------------
         1        2.0000           -0.7558824             -20.5686
       ...           ...                  ...                  ...
         6        2.0000           -0.6350712             -17.2812
         7        2.0000           -0.6233658             -16.9626
         8        2.0000           -0.6004985             -16.3404
         9        2.0000           -0.5831968             -15.8696
        10        2.0000           -0.5661842             -15.4067
        11        2.0000           -0.5557871             -15.1237
        12        2.0000           -0.5485411             -14.9266
        13        2.0000           -0.5306517             -14.4398
        14        2.0000           -0.5171399             -14.0721
        15        2.0000           -0.4828892             -13.1401
        16        2.0000           -0.4502981             -12.2532
        17        2.0000           -0.4144173             -11.2769
        18        1.8490           -0.3762639             -10.2387 (HOMO)
        19        0.1510           -0.3715037             -10.1091 (LUMO)
        20                         -0.3485917              -9.4857
        21                         -0.2533961              -6.8953
        22                         -0.2513231              -6.8388
        23                          0.0128540               0.3498
        24                          0.0268974               0.7319
        25                          0.0742801               2.0213
        26                          0.1672195               4.5503
        27                          0.3264105               8.8821
        28                          0.5288656              14.3912
        29                          0.6030530              16.4099
        30                          0.7147959              19.4506
      -------------------------------------------------------------
                  HL-Gap            0.0047603 Eh            0.1295 eV
             Fermi-level           -0.3738838 Eh          -10.1739 eV

   #   Z        covCN         q      C6AA      α(0)
   1   7 N      1.779    -0.239    27.071     7.705
   2   6 C      2.846     0.201    23.731     7.984
   3   7 N      1.903     0.123    19.761     6.591
   4   7 N      0.984    -0.055    21.946     6.738
   5   8 O      0.950    -0.386    21.363     6.199
   6   7 N      1.878     0.095    20.234     6.668
   7   6 C      2.850    -0.009    28.225     8.707
   8   1 H      0.860     0.195     1.132     1.666
   9   1 H      0.924     0.074     2.041     2.234

 Mol. C6AA /au·bohr⁶  :       1300.528137
 Mol. C8AA /au·bohr⁸  :      29699.099073
 Mol. α(0) /au        :         54.492188


Wiberg/Mayer (AO) data.
largest (>0.10) Wiberg bond orders for each atom
          total WBO             WBO to atom ...
     1  N   3.092        C    2 1.911    H    8 0.922    N    4 0.109
     2  C   3.908        N    1 1.911    N    3 0.971    C    7 0.878
     3  N   3.579        N    4 2.314    C    2 0.971
     4  N   2.835        N    3 2.314    N    6 0.137    O    5 0.128    N    1 0.109
     5  O   1.912        N    6 1.346    C    7 0.263    N    4 0.128
     6  N   3.356        C    7 1.706    O    5 1.346    N    4 0.137
     7  C   3.924        N    6 1.706    H    9 0.948    C    2 0.878    O    5 0.263
     8  H   0.962        N    1 0.922
     9  H   0.994        C    7 0.948

molecular dipole:
                 x           y           z       tot (Debye)
 q only:       -0.985       0.736       0.795
   full:       -1.242       0.748       0.822       4.237
molecular quadrupole (traceless):
                xx          xy          yy          xz          yz          zz
 q only:        2.454       3.466      -4.272       5.280      -4.782       1.818
  q+dip:        2.491       2.857      -6.006       7.174      -4.514       3.515
   full:        2.608       2.419      -6.112       6.936      -3.634       3.504


           -------------------------------------------------
          | TOTAL ENERGY              -20.813282760763 Eh   |
          | GRADIENT NORM               0.059632038802 Eh/α |
          | HOMO-LUMO GAP               0.129533524180 eV   |
           -------------------------------------------------

------------------------------------------------------------------------
 * finished run on 2021/06/02 at 10:00:07.676     
------------------------------------------------------------------------
 total:
 * wall-time:     0 d,  0 h,  0 min,  0.016 sec
 *  cpu-time:     0 d,  0 h,  0 min,  0.016 sec
 * ratio c/w:     0.987 speedup
 SCF:
 * wall-time:     0 d,  0 h,  0 min,  0.009 sec
 *  cpu-time:     0 d,  0 h,  0 min,  0.009 sec
 * ratio c/w:     1.000 speedup

