      -----------------------------------------------------------      
     |                   =====================                   |     
     |                           x T B                           |     
     |                   =====================                   |     
     |                         S. Grimme                         |     
     |          Mulliken Center for Theoretical Chemistry        |     
     |                    University of Bonn                     |     
     |                 Version 6.1.4 (SAW190525)                 |     
      -----------------------------------------------------------      

   This program is distributed in the hope that it will be useful,
   but WITHOUT ANY WARRANTY; without even the implied warranty of
   MERCHANTABILITY or FITNESS FOR A PARTICULAR PURPOSE.
   
   FOR NON-COMMERCIAL, ACADEMIA USE ONLY.
   
   Cite this work as:
   S. Grimme, C. Bannwarth, P. Shushkov, J. Comput. Theory Chem., 2017,
   13, 1989-2009. DOI: 10.1021/acs.jctc.7b00118
   C. Bannwarth, S. Ehlert and S. Grimme., J. Comput. Theory Chem., 2019,
   just accepted. DOI: 10.1021/acs.jctc.8b01176
   
   for sTDA-xTB:
   S. Grimme and C. Bannwarth, J. Chem. Phys., 2016, 145, 054103.
   DOI: 10.1063/1.4959605
   
   in the mass-spec context:
   V. Asgeirsson, C. Bauer and S. Grimme, Chem. Sci., 2017, 8, 4879.
   DOI: 10.1039/c7sc00601b
   
   for metadynamics refer to:
   S. Grimme, J. Chem. Theory Comput. Article ASAP, 2019,
   DOI: 10.1021/acs.jctc.9b00143
   
   with help from (in alphabetical order)
   C. Bannwarth, F. Bohle, G. Brandenburg, E. Caldeweyher, M. Checinski,
   S. Dohm, S. Ehlert, S. Ehrlich, F. März, H. Neugebauer, J. Pisarek,
   P. Pracht, P. Shushkov, and S. Spicher.
   
 * started run on 2021/06/02 at 10:00:07.513     

           -------------------------------------------------
          |                Calculation Setup                |
           -------------------------------------------------

          program call               : /groups/kemi/koerstz/opt/xtb/6.1/bin/xtb path_point_4.xyz --gfn2 --acc 0.2 --chrg 0
          hostname                   : node305
          coordinate file            : path_point_4.xyz
          omp threads                :                     1
          number of atoms            :                     9
          number of electrons        :                    36
          charge                     :                     0
          spin                       :                   0.0
          first test random number   :      0.92171361779126


########################################################################
# WARNING! Please study the warnings concerning your input carefully
#  - XTBPATH is not set, using XTBHOME instead
########################################################################

           ------------------------------------------------- 
          |                 G F N 2 - x T B                 |
          | Geometry, Frequencies, Noncovalent interactions |
          |            JCTC 2018 parametrisation            |
           ------------------------------------------------- 
             k(s)              :                1.8500
             k(p)              :                2.2300
             k(d)              :                2.2300
             k(f)              :                2.0000
             kEN (H0ij)        :               -2.0000
             D4 a1             :                0.5200
             D4 a2             :                5.0000
             D4 s6             :                1.0000
             D4 s8             :                2.7000
             D4 s9             :                5.0000
             alphaj            :                2.0000

  Z AO/shell   Hii/eV     exponent
  1     Wed Apr 25 08:07:45 CEST 2018   EN: 2.200 GM2: 0.406  GM3: 0.0800  RAES: 1.40
     1s    -10.707211    1.230000
  6     Wed Apr 25 08:07:45 CEST 2018   EN: 2.550 GM2: 0.538  GM3: 0.1500  RAES: 3.00
     2s    -13.970922    2.096432
     2p    -10.063292    1.800000
  7     Wed Apr 25 08:07:45 CEST 2018   EN: 3.040 GM2: 0.461  GM3:-0.0640  RAES: 1.90
     2s    -16.686243    2.339881
     2p    -12.523956    2.014332
  8     Wed Apr 25 08:07:45 CEST 2018   EN: 3.440 GM2: 0.452  GM3:-0.0517  RAES: 1.80
     2s    -20.229985    2.439742
     2p    -15.503117    2.137023


            Z     q(EN)     CN     RAES       Cart. coordinates
     1  N   5.0   -0.46    2.01    1.90    -0.99551     0.97839    -1.35962
     2  C   4.0    0.34    3.06    3.02    -0.64310    -1.00530    -0.17186
     3  N   5.0   -0.11    2.01    1.90    -2.23077    -3.11348    -0.04132
     4  N   5.0   -0.15    1.00    1.90    -3.02208    -4.76057     1.05704
     5  O   6.0   -0.11    1.04    1.80     1.79678    -4.15034    -1.74695
     6  N   5.0   -0.15    2.05    1.90     2.90304    -3.29255     0.24872
     7  C   4.0    0.14    3.04    3.02     1.70824    -1.54881     1.36709
     8  H   1.0    0.33    1.00    1.43    -2.48547     1.12730    -2.52877
     9  H   1.0    0.17    0.99    1.43     2.12099    -0.73604     3.23431

           ------------------------------------------------- 
          |        Self-Consistent Charge Iterations        |
           ------------------------------------------------- 
q/qsh data taken from xtbrestart
CAMM data taken from xtbrestart

          ...................................................
          :                      SETUP                      :
          :.................................................:
          :  # basis functions                  30          :
          :  # atomic orbitals                  30          :
          :  # shells                           16          :
          :  # electrons                        36          :
          :  max. iterations                   250          :
          :  Hamiltonian                  GFN2-xTB          :
          :  restarted?                       true          :
          :  GBSA solvation                  false          :
          :  PC potential                    false          :
          :  electronic temp.          300.0000000     K    :
          :  accuracy                    0.2000000          :
          :  -> integral cutoff          0.3198970E+02      :
          :  -> integral neglect         0.2000000E-08      :
          :  -> SCF convergence          0.2000000E-06 Eh   :
          :  -> wf. convergence          0.2000000E-04 e    :
          :  Broyden damping             0.4000000          :
          ...................................................

 iter      E             dE          RMSdq      gap      omega  full diag
   1    -21.0578132 -0.210578E+02  0.396E-01    0.39       0.0  T
   2    -21.0569978  0.815357E-03  0.345E-01    0.35       1.0  T
   3    -21.0562243  0.773566E-03  0.403E-01    0.46       1.0  T
   4    -21.0579583 -0.173401E-02  0.134E-01    0.37       1.0  T
   5    -21.0580988 -0.140547E-03  0.279E-02    0.39       1.2  T
   6    -21.0581046 -0.573626E-05  0.949E-03    0.39       3.5  T
   7    -21.0581046 -0.592576E-07  0.430E-03    0.39       7.8  T
   8    -21.0581047 -0.853547E-07  0.133E-03    0.39      25.0  T
   9    -21.0581047 -0.301981E-08  0.813E-04    0.39      41.0  T
  10    -21.0581047 -0.164793E-08  0.440E-04    0.39      75.8  T
  11    -21.0581047 -0.192886E-08  0.961E-05    0.39     346.9  T
  12    -21.0581047  0.139266E-10  0.629E-05    0.39     529.6  T

   *** convergence criteria satisfied after 12 iterations ***

         #    Occupation            Energy/Eh            Energy/eV
      -------------------------------------------------------------
         1        2.0000           -0.7600532             -20.6821
       ...           ...                  ...                  ...
        12        2.0000           -0.5472038             -14.8902
        13        2.0000           -0.5330030             -14.5037
        14        2.0000           -0.5155541             -14.0289
        15        2.0000           -0.4788485             -13.0301
        16        2.0000           -0.4488446             -12.2137
        17        2.0000           -0.4187254             -11.3941
        18        1.9989           -0.3836554             -10.4398 (HOMO)
        19        0.0011           -0.3693934             -10.0517 (LUMO)
        20                         -0.3448803              -9.3847
        21                         -0.2687722              -7.3137
        22                         -0.2366232              -6.4388
        23                          0.0083286               0.2266
       ...                                ...                  ...
        30                          0.7557023              20.5637
      -------------------------------------------------------------
                  HL-Gap            0.0142619 Eh            0.3881 eV
             Fermi-level           -0.3765244 Eh          -10.2458 eV

 SCC (total)                   0 d,  0 h,  0 min,  0.007 sec
 SCC setup                      ...        0 min,  0.000 sec (  1.761%)
 Dispersion                     ...        0 min,  0.000 sec (  0.836%)
 integral evaluation            ...        0 min,  0.001 sec ( 15.185%)
 zeroth order Hamiltonian       ...        0 min,  0.000 sec (  0.453%)
 iterations                     ...        0 min,  0.004 sec ( 51.080%)
 molecular gradient             ...        0 min,  0.002 sec ( 27.586%)
 printout                       ...        0 min,  0.000 sec (  2.574%)

         :::::::::::::::::::::::::::::::::::::::::::::::::::::
         ::                     SUMMARY                     ::
         :::::::::::::::::::::::::::::::::::::::::::::::::::::
         :: total energy              -20.817492524307 Eh   ::
         :: gradient norm               0.040774340111 Eh/α ::
         :: HOMO-LUMO gap               0.388086637524 eV   ::
         ::.................................................::
         :: SCC energy                -21.058104709520 Eh   ::
         :: -> isotropic ES             0.041360108924 Eh   ::
         :: -> anisotropic ES          -0.000062509666 Eh   ::
         :: -> anisotropic XC           0.029440293349 Eh   ::
         :: -> dispersion              -0.006206585231 Eh   ::
         :: repulsion energy            0.240607186843 Eh   ::
         :: add. restraining            0.000000000000 Eh   ::
         :::::::::::::::::::::::::::::::::::::::::::::::::::::

           -------------------------------------------------
          |                Property Printout                |
           -------------------------------------------------

    * Orbital Energies and Occupations

         #    Occupation            Energy/Eh            Energy/eV
      -------------------------------------------------------------
         1        2.0000           -0.7600532             -20.6821
       ...           ...                  ...                  ...
         6        2.0000           -0.6360831             -17.3087
         7        2.0000           -0.6279216             -17.0866
         8        2.0000           -0.6045655             -16.4511
         9        2.0000           -0.5836420             -15.8817
        10        2.0000           -0.5646439             -15.3647
        11        2.0000           -0.5479546             -14.9106
        12        2.0000           -0.5472038             -14.8902
        13        2.0000           -0.5330030             -14.5037
        14        2.0000           -0.5155541             -14.0289
        15        2.0000           -0.4788485             -13.0301
        16        2.0000           -0.4488446             -12.2137
        17        2.0000           -0.4187254             -11.3941
        18        1.9989           -0.3836554             -10.4398 (HOMO)
        19        0.0011           -0.3693934             -10.0517 (LUMO)
        20                         -0.3448803              -9.3847
        21                         -0.2687722              -7.3137
        22                         -0.2366232              -6.4388
        23                          0.0083286               0.2266
        24                          0.0281844               0.7669
        25                          0.0610155               1.6603
        26                          0.1638700               4.4591
        27                          0.2971570               8.0861
        28                          0.4810808              13.0909
        29                          0.6127466              16.6737
        30                          0.7557023              20.5637
      -------------------------------------------------------------
                  HL-Gap            0.0142619 Eh            0.3881 eV
             Fermi-level           -0.3765244 Eh          -10.2458 eV

   #   Z        covCN         q      C6AA      α(0)
   1   7 N      1.778    -0.259    27.552     7.773
   2   6 C      2.853     0.200    23.760     7.989
   3   7 N      1.905     0.163    19.095     6.479
   4   7 N      0.984    -0.044    21.741     6.706
   5   8 O      0.961    -0.376    21.155     6.169
   6   7 N      1.880     0.047    21.081     6.806
   7   6 C      2.856     0.006    27.873     8.653
   8   1 H      0.860     0.188     1.167     1.692
   9   1 H      0.923     0.073     2.050     2.239

 Mol. C6AA /au·bohr⁶  :       1301.173757
 Mol. C8AA /au·bohr⁸  :      29699.750816
 Mol. α(0) /au        :         54.507914


Wiberg/Mayer (AO) data.
largest (>0.10) Wiberg bond orders for each atom
          total WBO             WBO to atom ...
     1  N   3.136        C    2 1.884    H    8 0.926    O    5 0.115
     2  C   3.937        N    1 1.884    N    3 0.976    C    7 0.889
     3  N   3.708        N    4 2.360    C    2 0.976    O    5 0.141    N    6 0.102
     4  N   3.007        N    3 2.360    O    5 0.228    N    6 0.140
     5  O   2.096        N    6 1.294    N    4 0.228    C    7 0.208    N    3 0.141    N    1 0.115
     6  N   3.302        C    7 1.712    O    5 1.294    N    4 0.140    N    3 0.102
     7  C   3.944        N    6 1.712    H    9 0.950    C    2 0.889    O    5 0.208
     8  H   0.965        N    1 0.926
     9  H   0.995        C    7 0.950

molecular dipole:
                 x           y           z       tot (Debye)
 q only:       -0.942       0.798       0.702
   full:       -1.240       0.859       0.695       4.221
molecular quadrupole (traceless):
                xx          xy          yy          xz          yz          zz
 q only:        3.339       3.863      -5.749       4.114      -4.302       2.410
  q+dip:        3.371       3.533      -8.114       5.505      -3.860       4.743
   full:        3.596       3.345      -8.794       5.239      -3.184       5.198


           -------------------------------------------------
          | TOTAL ENERGY              -20.817492524307 Eh   |
          | GRADIENT NORM               0.040774340111 Eh/α |
          | HOMO-LUMO GAP               0.388086637524 eV   |
           -------------------------------------------------

------------------------------------------------------------------------
 * finished run on 2021/06/02 at 10:00:07.528     
------------------------------------------------------------------------
 total:
 * wall-time:     0 d,  0 h,  0 min,  0.015 sec
 *  cpu-time:     0 d,  0 h,  0 min,  0.014 sec
 * ratio c/w:     0.983 speedup
 SCF:
 * wall-time:     0 d,  0 h,  0 min,  0.007 sec
 *  cpu-time:     0 d,  0 h,  0 min,  0.007 sec
 * ratio c/w:     0.999 speedup

