      -----------------------------------------------------------      
     |                   =====================                   |     
     |                           x T B                           |     
     |                   =====================                   |     
     |                         S. Grimme                         |     
     |          Mulliken Center for Theoretical Chemistry        |     
     |                    University of Bonn                     |     
     |                 Version 6.1.4 (SAW190525)                 |     
      -----------------------------------------------------------      

   This program is distributed in the hope that it will be useful,
   but WITHOUT ANY WARRANTY; without even the implied warranty of
   MERCHANTABILITY or FITNESS FOR A PARTICULAR PURPOSE.
   
   FOR NON-COMMERCIAL, ACADEMIA USE ONLY.
   
   Cite this work as:
   S. Grimme, C. Bannwarth, P. Shushkov, J. Comput. Theory Chem., 2017,
   13, 1989-2009. DOI: 10.1021/acs.jctc.7b00118
   C. Bannwarth, S. Ehlert and S. Grimme., J. Comput. Theory Chem., 2019,
   just accepted. DOI: 10.1021/acs.jctc.8b01176
   
   for sTDA-xTB:
   S. Grimme and C. Bannwarth, J. Chem. Phys., 2016, 145, 054103.
   DOI: 10.1063/1.4959605
   
   in the mass-spec context:
   V. Asgeirsson, C. Bauer and S. Grimme, Chem. Sci., 2017, 8, 4879.
   DOI: 10.1039/c7sc00601b
   
   for metadynamics refer to:
   S. Grimme, J. Chem. Theory Comput. Article ASAP, 2019,
   DOI: 10.1021/acs.jctc.9b00143
   
   with help from (in alphabetical order)
   C. Bannwarth, F. Bohle, G. Brandenburg, E. Caldeweyher, M. Checinski,
   S. Dohm, S. Ehlert, S. Ehrlich, F. März, H. Neugebauer, J. Pisarek,
   P. Pracht, P. Shushkov, and S. Spicher.
   
 * started run on 2021/06/02 at 10:00:07.533     

           -------------------------------------------------
          |                Calculation Setup                |
           -------------------------------------------------

          program call               : /groups/kemi/koerstz/opt/xtb/6.1/bin/xtb path_point_12.xyz --gfn2 --acc 0.2 --chrg 0
          hostname                   : node305
          coordinate file            : path_point_12.xyz
          omp threads                :                     1
          number of atoms            :                     9
          number of electrons        :                    36
          charge                     :                     0
          spin                       :                   0.0
          first test random number   :      0.25018288300631


########################################################################
# WARNING! Please study the warnings concerning your input carefully
#  - XTBPATH is not set, using XTBHOME instead
########################################################################

           ------------------------------------------------- 
          |                 G F N 2 - x T B                 |
          | Geometry, Frequencies, Noncovalent interactions |
          |            JCTC 2018 parametrisation            |
           ------------------------------------------------- 
             k(s)              :                1.8500
             k(p)              :                2.2300
             k(d)              :                2.2300
             k(f)              :                2.0000
             kEN (H0ij)        :               -2.0000
             D4 a1             :                0.5200
             D4 a2             :                5.0000
             D4 s6             :                1.0000
             D4 s8             :                2.7000
             D4 s9             :                5.0000
             alphaj            :                2.0000

  Z AO/shell   Hii/eV     exponent
  1     Wed Apr 25 08:07:45 CEST 2018   EN: 2.200 GM2: 0.406  GM3: 0.0800  RAES: 1.40
     1s    -10.707211    1.230000
  6     Wed Apr 25 08:07:45 CEST 2018   EN: 2.550 GM2: 0.538  GM3: 0.1500  RAES: 3.00
     2s    -13.970922    2.096432
     2p    -10.063292    1.800000
  7     Wed Apr 25 08:07:45 CEST 2018   EN: 3.040 GM2: 0.461  GM3:-0.0640  RAES: 1.90
     2s    -16.686243    2.339881
     2p    -12.523956    2.014332
  8     Wed Apr 25 08:07:45 CEST 2018   EN: 3.440 GM2: 0.452  GM3:-0.0517  RAES: 1.80
     2s    -20.229985    2.439742
     2p    -15.503117    2.137023


            Z     q(EN)     CN     RAES       Cart. coordinates
     1  N   5.0   -0.46    2.01    1.90    -0.96757     0.85892    -1.43528
     2  C   4.0    0.34    3.06    3.02    -0.65754    -1.08802    -0.17942
     3  N   5.0   -0.11    2.01    1.90    -2.37809    -3.09217     0.09836
     4  N   5.0   -0.15    1.00    1.90    -3.19131    -4.58065     1.36882
     5  O   6.0   -0.11    1.04    1.80     2.12124    -3.85636    -2.00405
     6  N   5.0   -0.15    2.06    1.90     3.01968    -3.12488     0.12866
     7  C   4.0    0.14    3.04    3.02     1.68099    -1.62700     1.37291
     8  H   1.0    0.33    1.00    1.43    -2.44616     1.00853    -2.61673
     9  H   1.0    0.17    0.99    1.43     1.97087    -0.99978     3.32537

           ------------------------------------------------- 
          |        Self-Consistent Charge Iterations        |
           ------------------------------------------------- 
q/qsh data taken from xtbrestart
CAMM data taken from xtbrestart

          ...................................................
          :                      SETUP                      :
          :.................................................:
          :  # basis functions                  30          :
          :  # atomic orbitals                  30          :
          :  # shells                           16          :
          :  # electrons                        36          :
          :  max. iterations                   250          :
          :  Hamiltonian                  GFN2-xTB          :
          :  restarted?                       true          :
          :  GBSA solvation                  false          :
          :  PC potential                    false          :
          :  electronic temp.          300.0000000     K    :
          :  accuracy                    0.2000000          :
          :  -> integral cutoff          0.3198970E+02      :
          :  -> integral neglect         0.2000000E-08      :
          :  -> SCF convergence          0.2000000E-06 Eh   :
          :  -> wf. convergence          0.2000000E-04 e    :
          :  Broyden damping             0.4000000          :
          ...................................................

 iter      E             dE          RMSdq      gap      omega  full diag
   1    -21.0314051 -0.210314E+02  0.229E+00    0.18       0.0  T
   2    -20.9778126  0.535925E-01  0.267E+00    1.19       1.0  T
   3    -21.0471430 -0.693304E-01  0.120E+00    0.14       1.0  T
   4    -21.0499430 -0.280000E-02  0.101E+00    0.40       1.0  T
   5    -21.0609551 -0.110120E-01  0.348E-01    0.18       1.0  T
   6    -21.0613851 -0.430008E-03  0.115E-01    0.18       1.0  T
   7    -21.0613950 -0.986053E-05  0.578E-02    0.18       1.0  T
   8    -21.0614178 -0.228844E-04  0.214E-02    0.17       1.6  T
   9    -21.0614196 -0.180494E-05  0.853E-03    0.17       3.9  T
  10    -21.0614155  0.416744E-05  0.179E-02    0.18       1.9  T
  11    -21.0614180 -0.249256E-05  0.115E-02    0.17       2.9  T
  12    -21.0614195 -0.152627E-05  0.460E-03    0.17       7.2  T
  13    -21.0614198 -0.283514E-06  0.339E-04    0.17      98.3  T
  14    -21.0614198 -0.505199E-09  0.138E-04    0.17     241.7  T
  15    -21.0614198 -0.149491E-09  0.426E-05    0.17     782.7  T

   *** convergence criteria satisfied after 15 iterations ***

         #    Occupation            Energy/Eh            Energy/eV
      -------------------------------------------------------------
         1        2.0000           -0.7635113             -20.7762
       ...           ...                  ...                  ...
        12        2.0000           -0.5484524             -14.9241
        13        2.0000           -0.5337661             -14.5245
        14        2.0000           -0.5159275             -14.0391
        15        2.0000           -0.4781887             -13.0122
        16        2.0000           -0.4498597             -12.2413
        17        2.0000           -0.4143724             -11.2756
        18        1.9323           -0.3774675             -10.2714 (HOMO)
        19        0.0677           -0.3711006             -10.0982 (LUMO)
        20                         -0.3464642              -9.4278
        21                         -0.2563708              -6.9762
        22                         -0.2460335              -6.6949
        23                          0.0112119               0.3051
       ...                                ...                  ...
        30                          0.7680014              20.8984
      -------------------------------------------------------------
                  HL-Gap            0.0063669 Eh            0.1733 eV
             Fermi-level           -0.3742840 Eh          -10.1848 eV

 SCC (total)                   0 d,  0 h,  0 min,  0.008 sec
 SCC setup                      ...        0 min,  0.000 sec (  1.673%)
 Dispersion                     ...        0 min,  0.000 sec (  0.773%)
 integral evaluation            ...        0 min,  0.001 sec ( 13.957%)
 zeroth order Hamiltonian       ...        0 min,  0.000 sec (  0.417%)
 iterations                     ...        0 min,  0.004 sec ( 54.894%)
 molecular gradient             ...        0 min,  0.002 sec ( 25.768%)
 printout                       ...        0 min,  0.000 sec (  2.053%)

         :::::::::::::::::::::::::::::::::::::::::::::::::::::
         ::                     SUMMARY                     ::
         :::::::::::::::::::::::::::::::::::::::::::::::::::::
         :: total energy              -20.811507322065 Eh   ::
         :: gradient norm               0.074110408650 Eh/α ::
         :: HOMO-LUMO gap               0.173251829832 eV   ::
         ::.................................................::
         :: SCC energy                -21.061419776549 Eh   ::
         :: -> isotropic ES             0.042608673740 Eh   ::
         :: -> anisotropic ES           0.000147271141 Eh   ::
         :: -> anisotropic XC           0.028293154633 Eh   ::
         :: -> dispersion              -0.006172521873 Eh   ::
         :: repulsion energy            0.249907085702 Eh   ::
         :: add. restraining            0.000000000000 Eh   ::
         :::::::::::::::::::::::::::::::::::::::::::::::::::::

           -------------------------------------------------
          |                Property Printout                |
           -------------------------------------------------

    * Orbital Energies and Occupations

         #    Occupation            Energy/Eh            Energy/eV
      -------------------------------------------------------------
         1        2.0000           -0.7635113             -20.7762
       ...           ...                  ...                  ...
         6        2.0000           -0.6363553             -17.3161
         7        2.0000           -0.6297335             -17.1359
         8        2.0000           -0.6051520             -16.4670
         9        2.0000           -0.5823001             -15.8452
        10        2.0000           -0.5648666             -15.3708
        11        2.0000           -0.5511573             -14.9978
        12        2.0000           -0.5484524             -14.9241
        13        2.0000           -0.5337661             -14.5245
        14        2.0000           -0.5159275             -14.0391
        15        2.0000           -0.4781887             -13.0122
        16        2.0000           -0.4498597             -12.2413
        17        2.0000           -0.4143724             -11.2756
        18        1.9323           -0.3774675             -10.2714 (HOMO)
        19        0.0677           -0.3711006             -10.0982 (LUMO)
        20                         -0.3464642              -9.4278
        21                         -0.2563708              -6.9762
        22                         -0.2460335              -6.6949
        23                          0.0112119               0.3051
        24                          0.0317975               0.8653
        25                          0.0657419               1.7889
        26                          0.1670886               4.5467
        27                          0.3128458               8.5130
        28                          0.5307897              14.4435
        29                          0.6080698              16.5464
        30                          0.7680014              20.8984
      -------------------------------------------------------------
                  HL-Gap            0.0063669 Eh            0.1733 eV
             Fermi-level           -0.3742840 Eh          -10.1848 eV

   #   Z        covCN         q      C6AA      α(0)
   1   7 N      1.779    -0.246    27.235     7.729
   2   6 C      2.859     0.202    23.725     7.984
   3   7 N      1.902     0.145    19.389     6.528
   4   7 N      0.985    -0.045    21.760     6.709
   5   8 O      0.956    -0.390    21.430     6.209
   6   7 N      1.888     0.069    20.686     6.742
   7   6 C      2.852     0.000    28.019     8.676
   8   1 H      0.861     0.193     1.142     1.674
   9   1 H      0.924     0.071     2.074     2.252

 Mol. C6AA /au·bohr⁶  :       1301.037568
 Mol. C8AA /au·bohr⁸  :      29698.472606
 Mol. α(0) /au        :         54.502251


Wiberg/Mayer (AO) data.
largest (>0.10) Wiberg bond orders for each atom
          total WBO             WBO to atom ...
     1  N   3.125        C    2 1.898    H    8 0.923    N    4 0.112
     2  C   3.923        N    1 1.898    N    3 0.965    C    7 0.873
     3  N   3.641        N    4 2.349    C    2 0.965    N    6 0.105    O    5 0.103
     4  N   2.932        N    3 2.349    O    5 0.164    N    6 0.144    N    1 0.112
     5  O   1.997        N    6 1.306    C    7 0.235    N    4 0.164    N    3 0.103
     6  N   3.334        C    7 1.728    O    5 1.306    N    4 0.144    N    3 0.105
     7  C   3.934        N    6 1.728    H    9 0.949    C    2 0.873    O    5 0.235
     8  H   0.963        N    1 0.923
     9  H   0.995        C    7 0.949

molecular dipole:
                 x           y           z       tot (Debye)
 q only:       -1.045       0.736       0.791
   full:       -1.325       0.760       0.806       4.391
molecular quadrupole (traceless):
                xx          xy          yy          xz          yz          zz
 q only:        2.726       4.012      -4.596       4.848      -4.808       1.870
  q+dip:        2.614       3.551      -6.447       6.524      -4.467       3.833
   full:        2.728       3.247      -6.708       6.341      -3.648       3.980


           -------------------------------------------------
          | TOTAL ENERGY              -20.811507322065 Eh   |
          | GRADIENT NORM               0.074110408650 Eh/α |
          | HOMO-LUMO GAP               0.173251829832 eV   |
           -------------------------------------------------

------------------------------------------------------------------------
 * finished run on 2021/06/02 at 10:00:07.549     
------------------------------------------------------------------------
 total:
 * wall-time:     0 d,  0 h,  0 min,  0.015 sec
 *  cpu-time:     0 d,  0 h,  0 min,  0.015 sec
 * ratio c/w:     0.986 speedup
 SCF:
 * wall-time:     0 d,  0 h,  0 min,  0.008 sec
 *  cpu-time:     0 d,  0 h,  0 min,  0.008 sec
 * ratio c/w:     0.999 speedup

