      -----------------------------------------------------------      
     |                   =====================                   |     
     |                           x T B                           |     
     |                   =====================                   |     
     |                         S. Grimme                         |     
     |          Mulliken Center for Theoretical Chemistry        |     
     |                    University of Bonn                     |     
     |                 Version 6.1.4 (SAW190525)                 |     
      -----------------------------------------------------------      

   This program is distributed in the hope that it will be useful,
   but WITHOUT ANY WARRANTY; without even the implied warranty of
   MERCHANTABILITY or FITNESS FOR A PARTICULAR PURPOSE.
   
   FOR NON-COMMERCIAL, ACADEMIA USE ONLY.
   
   Cite this work as:
   S. Grimme, C. Bannwarth, P. Shushkov, J. Comput. Theory Chem., 2017,
   13, 1989-2009. DOI: 10.1021/acs.jctc.7b00118
   C. Bannwarth, S. Ehlert and S. Grimme., J. Comput. Theory Chem., 2019,
   just accepted. DOI: 10.1021/acs.jctc.8b01176
   
   for sTDA-xTB:
   S. Grimme and C. Bannwarth, J. Chem. Phys., 2016, 145, 054103.
   DOI: 10.1063/1.4959605
   
   in the mass-spec context:
   V. Asgeirsson, C. Bauer and S. Grimme, Chem. Sci., 2017, 8, 4879.
   DOI: 10.1039/c7sc00601b
   
   for metadynamics refer to:
   S. Grimme, J. Chem. Theory Comput. Article ASAP, 2019,
   DOI: 10.1021/acs.jctc.9b00143
   
   with help from (in alphabetical order)
   C. Bannwarth, F. Bohle, G. Brandenburg, E. Caldeweyher, M. Checinski,
   S. Dohm, S. Ehlert, S. Ehrlich, F. März, H. Neugebauer, J. Pisarek,
   P. Pracht, P. Shushkov, and S. Spicher.
   
 * started run on 2021/06/02 at 10:00:07.867     

           -------------------------------------------------
          |                Calculation Setup                |
           -------------------------------------------------

          program call               : /groups/kemi/koerstz/opt/xtb/6.1/bin/xtb path_point_1.xyz --gfn2 --acc 0.2 --chrg 0
          hostname                   : node305
          coordinate file            : path_point_1.xyz
          omp threads                :                     1
          number of atoms            :                     9
          number of electrons        :                    36
          charge                     :                     0
          spin                       :                   0.0
          first test random number   :      0.30038453849623


########################################################################
# WARNING! Please study the warnings concerning your input carefully
#  - XTBPATH is not set, using XTBHOME instead
########################################################################

           ------------------------------------------------- 
          |                 G F N 2 - x T B                 |
          | Geometry, Frequencies, Noncovalent interactions |
          |            JCTC 2018 parametrisation            |
           ------------------------------------------------- 
             k(s)              :                1.8500
             k(p)              :                2.2300
             k(d)              :                2.2300
             k(f)              :                2.0000
             kEN (H0ij)        :               -2.0000
             D4 a1             :                0.5200
             D4 a2             :                5.0000
             D4 s6             :                1.0000
             D4 s8             :                2.7000
             D4 s9             :                5.0000
             alphaj            :                2.0000

  Z AO/shell   Hii/eV     exponent
  1     Wed Apr 25 08:07:45 CEST 2018   EN: 2.200 GM2: 0.406  GM3: 0.0800  RAES: 1.40
     1s    -10.707211    1.230000
  6     Wed Apr 25 08:07:45 CEST 2018   EN: 2.550 GM2: 0.538  GM3: 0.1500  RAES: 3.00
     2s    -13.970922    2.096432
     2p    -10.063292    1.800000
  7     Wed Apr 25 08:07:45 CEST 2018   EN: 3.040 GM2: 0.461  GM3:-0.0640  RAES: 1.90
     2s    -16.686243    2.339881
     2p    -12.523956    2.014332
  8     Wed Apr 25 08:07:45 CEST 2018   EN: 3.440 GM2: 0.452  GM3:-0.0517  RAES: 1.80
     2s    -20.229985    2.439742
     2p    -15.503117    2.137023


            Z     q(EN)     CN     RAES       Cart. coordinates
     1  N   5.0   -0.47    2.01    1.90    -1.00815     1.03085    -1.33038
     2  C   4.0    0.34    3.05    3.02    -0.64033    -0.96340    -0.16420
     3  N   5.0   -0.11    2.02    1.90    -2.17150    -3.11467    -0.09718
     4  N   5.0   -0.15    1.00    1.90    -2.94761    -4.84148     0.92556
     5  O   6.0   -0.10    1.04    1.80     1.67358    -4.27738    -1.63622
     6  N   5.0   -0.15    2.04    1.90     2.85344    -3.36853     0.30049
     7  C   4.0    0.14    3.04    3.02     1.71695    -1.51826     1.36201
     8  H   1.0    0.33    1.00    1.43    -2.50750     1.17865    -2.49255
     9  H   1.0    0.17    0.99    1.43     2.18322    -0.62719     3.19112

           ------------------------------------------------- 
          |        Self-Consistent Charge Iterations        |
           ------------------------------------------------- 
q/qsh data taken from xtbrestart
CAMM data taken from xtbrestart

          ...................................................
          :                      SETUP                      :
          :.................................................:
          :  # basis functions                  30          :
          :  # atomic orbitals                  30          :
          :  # shells                           16          :
          :  # electrons                        36          :
          :  max. iterations                   250          :
          :  Hamiltonian                  GFN2-xTB          :
          :  restarted?                       true          :
          :  GBSA solvation                  false          :
          :  PC potential                    false          :
          :  electronic temp.          300.0000000     K    :
          :  accuracy                    0.2000000          :
          :  -> integral cutoff          0.3198970E+02      :
          :  -> integral neglect         0.2000000E-08      :
          :  -> SCF convergence          0.2000000E-06 Eh   :
          :  -> wf. convergence          0.2000000E-04 e    :
          :  Broyden damping             0.4000000          :
          ...................................................

 iter      E             dE          RMSdq      gap      omega  full diag
   1    -21.0439937 -0.210440E+02  0.191E+00    0.66       0.0  T
   2    -21.0454385 -0.144475E-02  0.101E+00    0.46       1.0  T
   3    -21.0346347  0.108037E-01  0.121E+00    0.75       1.0  T
   4    -21.0447527 -0.101179E-01  0.699E-01    0.41       1.0  T
   5    -21.0489512 -0.419852E-02  0.220E-01    0.50       1.0  T
   6    -21.0493797 -0.428489E-03  0.725E-02    0.47       1.0  T
   7    -21.0493852 -0.554067E-05  0.428E-02    0.46       1.0  T
   8    -21.0494025 -0.173325E-04  0.180E-02    0.46       1.9  T
   9    -21.0494053 -0.276608E-05  0.418E-03    0.47       8.0  T
  10    -21.0494053  0.673149E-08  0.186E-03    0.47      17.9  T
  11    -21.0494053 -0.338622E-07  0.744E-04    0.47      44.8  T
  12    -21.0494053 -0.317951E-08  0.375E-04    0.47      88.9  T
  13    -21.0494053 -0.163855E-08  0.578E-05    0.47     576.9  T
  14    -21.0494053 -0.238671E-10  0.239E-05    0.47    1395.7  T

   *** convergence criteria satisfied after 14 iterations ***

         #    Occupation            Energy/Eh            Energy/eV
      -------------------------------------------------------------
         1        2.0000           -0.7550146             -20.5450
       ...           ...                  ...                  ...
        12        2.0000           -0.5434701             -14.7886
        13        2.0000           -0.5311572             -14.4535
        14        2.0000           -0.5165063             -14.0549
        15        2.0000           -0.4807643             -13.0823
        16        2.0000           -0.4495285             -12.2323
        17        2.0000           -0.4203368             -11.4379
        18        1.9998           -0.3867100             -10.5229 (HOMO)
        19        0.0002           -0.3695917             -10.0571 (LUMO)
        20                         -0.3443468              -9.3702
        21                         -0.2755938              -7.4993
        22                         -0.2347785              -6.3886
        23                          0.0047409               0.1290
       ...                                ...                  ...
        30                          0.7231393              19.6776
      -------------------------------------------------------------
                  HL-Gap            0.0171183 Eh            0.4658 eV
             Fermi-level           -0.3781509 Eh          -10.2900 eV

 SCC (total)                   0 d,  0 h,  0 min,  0.007 sec
 SCC setup                      ...        0 min,  0.000 sec (  1.656%)
 Dispersion                     ...        0 min,  0.000 sec (  0.763%)
 integral evaluation            ...        0 min,  0.001 sec ( 14.739%)
 zeroth order Hamiltonian       ...        0 min,  0.000 sec (  0.415%)
 iterations                     ...        0 min,  0.004 sec ( 53.718%)
 molecular gradient             ...        0 min,  0.002 sec ( 26.187%)
 printout                       ...        0 min,  0.000 sec (  2.062%)

         :::::::::::::::::::::::::::::::::::::::::::::::::::::
         ::                     SUMMARY                     ::
         :::::::::::::::::::::::::::::::::::::::::::::::::::::
         :: total energy              -20.819361348021 Eh   ::
         :: gradient norm               0.039701662378 Eh/α ::
         :: HOMO-LUMO gap               0.465811313003 eV   ::
         ::.................................................::
         :: SCC energy                -21.049405341305 Eh   ::
         :: -> isotropic ES             0.040195136551 Eh   ::
         :: -> anisotropic ES          -0.000118645837 Eh   ::
         :: -> anisotropic XC           0.030213395153 Eh   ::
         :: -> dispersion              -0.006205200799 Eh   ::
         :: repulsion energy            0.230039112352 Eh   ::
         :: add. restraining            0.000000000000 Eh   ::
         :::::::::::::::::::::::::::::::::::::::::::::::::::::

           -------------------------------------------------
          |                Property Printout                |
           -------------------------------------------------

    * Orbital Energies and Occupations

         #    Occupation            Energy/Eh            Energy/eV
      -------------------------------------------------------------
         1        2.0000           -0.7550146             -20.5450
       ...           ...                  ...                  ...
         6        2.0000           -0.6346266             -17.2691
         7        2.0000           -0.6254785             -17.0201
         8        2.0000           -0.6026817             -16.3998
         9        2.0000           -0.5841911             -15.8966
        10        2.0000           -0.5642194             -15.3532
        11        2.0000           -0.5477255             -14.9044
        12        2.0000           -0.5434701             -14.7886
        13        2.0000           -0.5311572             -14.4535
        14        2.0000           -0.5165063             -14.0549
        15        2.0000           -0.4807643             -13.0823
        16        2.0000           -0.4495285             -12.2323
        17        2.0000           -0.4203368             -11.4379
        18        1.9998           -0.3867100             -10.5229 (HOMO)
        19        0.0002           -0.3695917             -10.0571 (LUMO)
        20                         -0.3443468              -9.3702
        21                         -0.2755938              -7.4993
        22                         -0.2347785              -6.3886
        23                          0.0047409               0.1290
        24                          0.0216820               0.5900
        25                          0.0542688               1.4767
        26                          0.1595634               4.3419
        27                          0.2855918               7.7713
        28                          0.4447603              12.1025
        29                          0.6097300              16.5916
        30                          0.7231393              19.6776
      -------------------------------------------------------------
                  HL-Gap            0.0171183 Eh            0.4658 eV
             Fermi-level           -0.3781509 Eh          -10.2900 eV

   #   Z        covCN         q      C6AA      α(0)
   1   7 N      1.778    -0.261    27.597     7.780
   2   6 C      2.844     0.200    23.758     7.988
   3   7 N      1.907     0.164    19.083     6.477
   4   7 N      0.983    -0.047    21.797     6.715
   5   8 O      0.958    -0.368    21.008     6.148
   6   7 N      1.873     0.042    21.171     6.821
   7   6 C      2.854     0.006    27.881     8.654
   8   1 H      0.860     0.188     1.171     1.695
   9   1 H      0.923     0.076     2.026     2.226

 Mol. C6AA /au·bohr⁶  :       1300.955178
 Mol. C8AA /au·bohr⁸  :      29698.801087
 Mol. α(0) /au        :         54.504035


Wiberg/Mayer (AO) data.
largest (>0.10) Wiberg bond orders for each atom
          total WBO             WBO to atom ...
     1  N   3.130        C    2 1.887    H    8 0.926    O    5 0.111
     2  C   3.937        N    1 1.887    N    3 0.978    C    7 0.901
     3  N   3.715        N    4 2.353    C    2 0.978    O    5 0.160
     4  N   3.002        N    3 2.353    O    5 0.245    N    6 0.132    C    7 0.103
     5  O   2.113        N    6 1.298    N    4 0.245    C    7 0.205    N    3 0.160    N    1 0.111
     6  N   3.281        C    7 1.696    O    5 1.298    N    4 0.132
     7  C   3.944        N    6 1.696    H    9 0.950    C    2 0.901    O    5 0.205    N    4 0.103
     8  H   0.965        N    1 0.926
     9  H   0.994        C    7 0.950

molecular dipole:
                 x           y           z       tot (Debye)
 q only:       -0.874       0.850       0.651
   full:       -1.175       0.927       0.635       4.133
molecular quadrupole (traceless):
                xx          xy          yy          xz          yz          zz
 q only:        3.594       3.588      -6.306       3.886      -4.030       2.712
  q+dip:        3.693       3.288      -8.876       5.197      -3.537       5.183
   full:        3.977       3.118      -9.720       4.870      -2.926       5.743


           -------------------------------------------------
          | TOTAL ENERGY              -20.819361348021 Eh   |
          | GRADIENT NORM               0.039701662378 Eh/α |
          | HOMO-LUMO GAP               0.465811313003 eV   |
           -------------------------------------------------

------------------------------------------------------------------------
 * finished run on 2021/06/02 at 10:00:07.882     
------------------------------------------------------------------------
 total:
 * wall-time:     0 d,  0 h,  0 min,  0.015 sec
 *  cpu-time:     0 d,  0 h,  0 min,  0.015 sec
 * ratio c/w:     0.986 speedup
 SCF:
 * wall-time:     0 d,  0 h,  0 min,  0.008 sec
 *  cpu-time:     0 d,  0 h,  0 min,  0.008 sec
 * ratio c/w:     1.000 speedup

