      -----------------------------------------------------------      
     |                   =====================                   |     
     |                           x T B                           |     
     |                   =====================                   |     
     |                         S. Grimme                         |     
     |          Mulliken Center for Theoretical Chemistry        |     
     |                    University of Bonn                     |     
     |                 Version 6.1.4 (SAW190525)                 |     
      -----------------------------------------------------------      

   This program is distributed in the hope that it will be useful,
   but WITHOUT ANY WARRANTY; without even the implied warranty of
   MERCHANTABILITY or FITNESS FOR A PARTICULAR PURPOSE.
   
   FOR NON-COMMERCIAL, ACADEMIA USE ONLY.
   
   Cite this work as:
   S. Grimme, C. Bannwarth, P. Shushkov, J. Comput. Theory Chem., 2017,
   13, 1989-2009. DOI: 10.1021/acs.jctc.7b00118
   C. Bannwarth, S. Ehlert and S. Grimme., J. Comput. Theory Chem., 2019,
   just accepted. DOI: 10.1021/acs.jctc.8b01176
   
   for sTDA-xTB:
   S. Grimme and C. Bannwarth, J. Chem. Phys., 2016, 145, 054103.
   DOI: 10.1063/1.4959605
   
   in the mass-spec context:
   V. Asgeirsson, C. Bauer and S. Grimme, Chem. Sci., 2017, 8, 4879.
   DOI: 10.1039/c7sc00601b
   
   for metadynamics refer to:
   S. Grimme, J. Chem. Theory Comput. Article ASAP, 2019,
   DOI: 10.1021/acs.jctc.9b00143
   
   with help from (in alphabetical order)
   C. Bannwarth, F. Bohle, G. Brandenburg, E. Caldeweyher, M. Checinski,
   S. Dohm, S. Ehlert, S. Ehrlich, F. März, H. Neugebauer, J. Pisarek,
   P. Pracht, P. Shushkov, and S. Spicher.
   
 * started run on 2021/06/02 at 10:00:07.596     

           -------------------------------------------------
          |                Calculation Setup                |
           -------------------------------------------------

          program call               : /groups/kemi/koerstz/opt/xtb/6.1/bin/xtb path_point_8.xyz --gfn2 --acc 0.2 --chrg 0
          hostname                   : node305
          coordinate file            : path_point_8.xyz
          omp threads                :                     1
          number of atoms            :                     9
          number of electrons        :                    36
          charge                     :                     0
          spin                       :                   0.0
          first test random number   :      0.47872383039981


########################################################################
# WARNING! Please study the warnings concerning your input carefully
#  - XTBPATH is not set, using XTBHOME instead
########################################################################

           ------------------------------------------------- 
          |                 G F N 2 - x T B                 |
          | Geometry, Frequencies, Noncovalent interactions |
          |            JCTC 2018 parametrisation            |
           ------------------------------------------------- 
             k(s)              :                1.8500
             k(p)              :                2.2300
             k(d)              :                2.2300
             k(f)              :                2.0000
             kEN (H0ij)        :               -2.0000
             D4 a1             :                0.5200
             D4 a2             :                5.0000
             D4 s6             :                1.0000
             D4 s8             :                2.7000
             D4 s9             :                5.0000
             alphaj            :                2.0000

  Z AO/shell   Hii/eV     exponent
  1     Wed Apr 25 08:07:45 CEST 2018   EN: 2.200 GM2: 0.406  GM3: 0.0800  RAES: 1.40
     1s    -10.707211    1.230000
  6     Wed Apr 25 08:07:45 CEST 2018   EN: 2.550 GM2: 0.538  GM3: 0.1500  RAES: 3.00
     2s    -13.970922    2.096432
     2p    -10.063292    1.800000
  7     Wed Apr 25 08:07:45 CEST 2018   EN: 3.040 GM2: 0.461  GM3:-0.0640  RAES: 1.90
     2s    -16.686243    2.339881
     2p    -12.523956    2.014332
  8     Wed Apr 25 08:07:45 CEST 2018   EN: 3.440 GM2: 0.452  GM3:-0.0517  RAES: 1.80
     2s    -20.229985    2.439742
     2p    -15.503117    2.137023


            Z     q(EN)     CN     RAES       Cart. coordinates
     1  N   5.0   -0.46    2.01    1.90    -0.97867     0.90843    -1.39861
     2  C   4.0    0.34    3.07    3.02    -0.64680    -1.06117    -0.18207
     3  N   5.0   -0.11    2.01    1.90    -2.30981    -3.11188     0.03315
     4  N   5.0   -0.15    1.00    1.90    -3.12138    -4.65270     1.23235
     5  O   6.0   -0.11    1.04    1.80     1.96105    -3.98096    -1.89458
     6  N   5.0   -0.15    2.06    1.90     2.96917    -3.19125     0.17969
     7  C   4.0    0.14    3.04    3.02     1.69662    -1.58954     1.37387
     8  H   1.0    0.33    1.00    1.43    -2.45609     1.05883    -2.57707
     9  H   1.0    0.17    0.99    1.43     2.03801    -0.88117     3.29190

           ------------------------------------------------- 
          |        Self-Consistent Charge Iterations        |
           ------------------------------------------------- 
q/qsh data taken from xtbrestart
CAMM data taken from xtbrestart

          ...................................................
          :                      SETUP                      :
          :.................................................:
          :  # basis functions                  30          :
          :  # atomic orbitals                  30          :
          :  # shells                           16          :
          :  # electrons                        36          :
          :  max. iterations                   250          :
          :  Hamiltonian                  GFN2-xTB          :
          :  restarted?                       true          :
          :  GBSA solvation                  false          :
          :  PC potential                    false          :
          :  electronic temp.          300.0000000     K    :
          :  accuracy                    0.2000000          :
          :  -> integral cutoff          0.3198970E+02      :
          :  -> integral neglect         0.2000000E-08      :
          :  -> SCF convergence          0.2000000E-06 Eh   :
          :  -> wf. convergence          0.2000000E-04 e    :
          :  Broyden damping             0.4000000          :
          ...................................................

 iter      E             dE          RMSdq      gap      omega  full diag
   1    -21.0534934 -0.210535E+02  0.119E+00    0.48       0.0  T
   2    -20.7417000  0.311793E+00  0.491E+00    0.07       1.0  T
   3    -21.0605138 -0.318814E+00  0.618E-01    0.41       1.0  T
   4    -21.0619603 -0.144649E-02  0.417E-01    0.36       1.0  T
   5    -21.0629043 -0.944014E-03  0.236E-01    0.33       1.0  T
   6    -21.0629813 -0.769895E-04  0.182E-01    0.32       1.0  T
   7    -21.0631981 -0.216806E-03  0.113E-01    0.30       1.0  T
   8    -21.0632805 -0.823242E-04  0.624E-02    0.29       1.0  T
   9    -21.0633040 -0.234963E-04  0.390E-02    0.28       1.0  T
  10    -21.0633172 -0.132333E-04  0.118E-02    0.28       2.8  T
  11    -21.0633182 -0.100621E-05  0.567E-03    0.28       5.9  T
  12    -21.0633185 -0.310345E-06  0.130E-03    0.27      25.7  T
  13    -21.0633185 -0.137168E-07  0.225E-04    0.27     148.5  T
  14    -21.0633185 -0.189281E-09  0.185E-04    0.27     180.4  T
  15    -21.0633185 -0.253415E-09  0.349E-05    0.27     956.3  T

   *** convergence criteria satisfied after 15 iterations ***

         #    Occupation            Energy/Eh            Energy/eV
      -------------------------------------------------------------
         1        2.0000           -0.7650285             -20.8175
       ...           ...                  ...                  ...
        12        2.0000           -0.5481703             -14.9165
        13        2.0000           -0.5344208             -14.5423
        14        2.0000           -0.5150263             -14.0146
        15        2.0000           -0.4769313             -12.9780
        16        2.0000           -0.4489326             -12.2161
        17        2.0000           -0.4161801             -11.3248
        18        1.9902           -0.3800901             -10.3428 (HOMO)
        19        0.0098           -0.3700000             -10.0682 (LUMO)
        20                         -0.3453633              -9.3978
        21                         -0.2610028              -7.1022
        22                         -0.2410196              -6.5585
        23                          0.0099566               0.2709
       ...                                ...                  ...
        30                          0.7835168              21.3206
      -------------------------------------------------------------
                  HL-Gap            0.0100901 Eh            0.2746 eV
             Fermi-level           -0.3750451 Eh          -10.2055 eV

 SCC (total)                   0 d,  0 h,  0 min,  0.008 sec
 SCC setup                      ...        0 min,  0.000 sec (  1.624%)
 Dispersion                     ...        0 min,  0.000 sec (  0.742%)
 integral evaluation            ...        0 min,  0.001 sec ( 13.841%)
 zeroth order Hamiltonian       ...        0 min,  0.000 sec (  0.397%)
 iterations                     ...        0 min,  0.004 sec ( 54.468%)
 molecular gradient             ...        0 min,  0.002 sec ( 26.068%)
 printout                       ...        0 min,  0.000 sec (  2.381%)

         :::::::::::::::::::::::::::::::::::::::::::::::::::::
         ::                     SUMMARY                     ::
         :::::::::::::::::::::::::::::::::::::::::::::::::::::
         :: total energy              -20.813360144755 Eh   ::
         :: gradient norm               0.072489981237 Eh/α ::
         :: HOMO-LUMO gap               0.274566074068 eV   ::
         ::.................................................::
         :: SCC energy                -21.063318519043 Eh   ::
         :: -> isotropic ES             0.042751780098 Eh   ::
         :: -> anisotropic ES          -0.000011777758 Eh   ::
         :: -> anisotropic XC           0.028856869139 Eh   ::
         :: -> dispersion              -0.006196187961 Eh   ::
         :: repulsion energy            0.249953195340 Eh   ::
         :: add. restraining            0.000000000000 Eh   ::
         :::::::::::::::::::::::::::::::::::::::::::::::::::::

           -------------------------------------------------
          |                Property Printout                |
           -------------------------------------------------

    * Orbital Energies and Occupations

         #    Occupation            Energy/Eh            Energy/eV
      -------------------------------------------------------------
         1        2.0000           -0.7650285             -20.8175
       ...           ...                  ...                  ...
         6        2.0000           -0.6373512             -17.3432
         7        2.0000           -0.6308762             -17.1670
         8        2.0000           -0.6062365             -16.4965
         9        2.0000           -0.5825647             -15.8524
        10        2.0000           -0.5645025             -15.3609
        11        2.0000           -0.5495313             -14.9535
        12        2.0000           -0.5481703             -14.9165
        13        2.0000           -0.5344208             -14.5423
        14        2.0000           -0.5150263             -14.0146
        15        2.0000           -0.4769313             -12.9780
        16        2.0000           -0.4489326             -12.2161
        17        2.0000           -0.4161801             -11.3248
        18        1.9902           -0.3800901             -10.3428 (HOMO)
        19        0.0098           -0.3700000             -10.0682 (LUMO)
        20                         -0.3453633              -9.3978
        21                         -0.2610028              -7.1022
        22                         -0.2410196              -6.5585
        23                          0.0099566               0.2709
        24                          0.0330753               0.9000
        25                          0.0624344               1.6989
        26                          0.1667100               4.5364
        27                          0.3050641               8.3012
        28                          0.5173141              14.0768
        29                          0.6118621              16.6496
        30                          0.7835168              21.3206
      -------------------------------------------------------------
                  HL-Gap            0.0100901 Eh            0.2746 eV
             Fermi-level           -0.3750451 Eh          -10.2055 eV

   #   Z        covCN         q      C6AA      α(0)
   1   7 N      1.779    -0.254    27.424     7.755
   2   6 C      2.863     0.200    23.750     7.988
   3   7 N      1.903     0.159    19.164     6.490
   4   7 N      0.985    -0.042    21.698     6.699
   5   8 O      0.961    -0.386    21.349     6.197
   6   7 N      1.889     0.055    20.947     6.785
   7   6 C      2.855     0.005    27.898     8.657
   8   1 H      0.861     0.190     1.156     1.684
   9   1 H      0.924     0.071     2.072     2.251

 Mol. C6AA /au·bohr⁶  :       1301.259048
 Mol. C8AA /au·bohr⁸  :      29699.433973
 Mol. α(0) /au        :         54.508000


Wiberg/Mayer (AO) data.
largest (>0.10) Wiberg bond orders for each atom
          total WBO             WBO to atom ...
     1  N   3.142        C    2 1.886    H    8 0.925    O    5 0.109    N    4 0.103
     2  C   3.934        N    1 1.886    N    3 0.969    C    7 0.877
     3  N   3.690        N    4 2.366    C    2 0.969    O    5 0.121    N    6 0.108
     4  N   2.999        N    3 2.366    O    5 0.201    N    6 0.148    N    1 0.103
     5  O   2.065        N    6 1.291    C    7 0.217    N    4 0.201    N    3 0.121    N    1 0.109
     6  N   3.326        C    7 1.729    O    5 1.291    N    4 0.148    N    3 0.108
     7  C   3.942        N    6 1.729    H    9 0.950    C    2 0.877    O    5 0.217
     8  H   0.964        N    1 0.925
     9  H   0.995        C    7 0.950

molecular dipole:
                 x           y           z       tot (Debye)
 q only:       -1.026       0.748       0.764
   full:       -1.318       0.787       0.768       4.361
molecular quadrupole (traceless):
                xx          xy          yy          xz          yz          zz
 q only:        2.997       4.133      -5.048       4.475      -4.642       2.050
  q+dip:        2.899       3.765      -7.110       6.001      -4.243       4.211
   full:        3.058       3.536      -7.557       5.805      -3.491       4.500


           -------------------------------------------------
          | TOTAL ENERGY              -20.813360144755 Eh   |
          | GRADIENT NORM               0.072489981237 Eh/α |
          | HOMO-LUMO GAP               0.274566074068 eV   |
           -------------------------------------------------

------------------------------------------------------------------------
 * finished run on 2021/06/02 at 10:00:07.612     
------------------------------------------------------------------------
 total:
 * wall-time:     0 d,  0 h,  0 min,  0.015 sec
 *  cpu-time:     0 d,  0 h,  0 min,  0.015 sec
 * ratio c/w:     0.986 speedup
 SCF:
 * wall-time:     0 d,  0 h,  0 min,  0.008 sec
 *  cpu-time:     0 d,  0 h,  0 min,  0.008 sec
 * ratio c/w:     1.000 speedup

