      -----------------------------------------------------------      
     |                   =====================                   |     
     |                           x T B                           |     
     |                   =====================                   |     
     |                         S. Grimme                         |     
     |          Mulliken Center for Theoretical Chemistry        |     
     |                    University of Bonn                     |     
     |                 Version 6.1.4 (SAW190525)                 |     
      -----------------------------------------------------------      

   This program is distributed in the hope that it will be useful,
   but WITHOUT ANY WARRANTY; without even the implied warranty of
   MERCHANTABILITY or FITNESS FOR A PARTICULAR PURPOSE.
   
   FOR NON-COMMERCIAL, ACADEMIA USE ONLY.
   
   Cite this work as:
   S. Grimme, C. Bannwarth, P. Shushkov, J. Comput. Theory Chem., 2017,
   13, 1989-2009. DOI: 10.1021/acs.jctc.7b00118
   C. Bannwarth, S. Ehlert and S. Grimme., J. Comput. Theory Chem., 2019,
   just accepted. DOI: 10.1021/acs.jctc.8b01176
   
   for sTDA-xTB:
   S. Grimme and C. Bannwarth, J. Chem. Phys., 2016, 145, 054103.
   DOI: 10.1063/1.4959605
   
   in the mass-spec context:
   V. Asgeirsson, C. Bauer and S. Grimme, Chem. Sci., 2017, 8, 4879.
   DOI: 10.1039/c7sc00601b
   
   for metadynamics refer to:
   S. Grimme, J. Chem. Theory Comput. Article ASAP, 2019,
   DOI: 10.1021/acs.jctc.9b00143
   
   with help from (in alphabetical order)
   C. Bannwarth, F. Bohle, G. Brandenburg, E. Caldeweyher, M. Checinski,
   S. Dohm, S. Ehlert, S. Ehrlich, F. März, H. Neugebauer, J. Pisarek,
   P. Pracht, P. Shushkov, and S. Spicher.
   
 * started run on 2021/06/02 at 10:00:07.765     

           -------------------------------------------------
          |                Calculation Setup                |
           -------------------------------------------------

          program call               : /groups/kemi/koerstz/opt/xtb/6.1/bin/xtb path_point_11.xyz --gfn2 --acc 0.2 --chrg 0
          hostname                   : node305
          coordinate file            : path_point_11.xyz
          omp threads                :                     1
          number of atoms            :                     9
          number of electrons        :                    36
          charge                     :                     0
          spin                       :                   0.0
          first test random number   :      0.12360894750187


########################################################################
# WARNING! Please study the warnings concerning your input carefully
#  - XTBPATH is not set, using XTBHOME instead
########################################################################

           ------------------------------------------------- 
          |                 G F N 2 - x T B                 |
          | Geometry, Frequencies, Noncovalent interactions |
          |            JCTC 2018 parametrisation            |
           ------------------------------------------------- 
             k(s)              :                1.8500
             k(p)              :                2.2300
             k(d)              :                2.2300
             k(f)              :                2.0000
             kEN (H0ij)        :               -2.0000
             D4 a1             :                0.5200
             D4 a2             :                5.0000
             D4 s6             :                1.0000
             D4 s8             :                2.7000
             D4 s9             :                5.0000
             alphaj            :                2.0000

  Z AO/shell   Hii/eV     exponent
  1     Wed Apr 25 08:07:45 CEST 2018   EN: 2.200 GM2: 0.406  GM3: 0.0800  RAES: 1.40
     1s    -10.707211    1.230000
  6     Wed Apr 25 08:07:45 CEST 2018   EN: 2.550 GM2: 0.538  GM3: 0.1500  RAES: 3.00
     2s    -13.970922    2.096432
     2p    -10.063292    1.800000
  7     Wed Apr 25 08:07:45 CEST 2018   EN: 3.040 GM2: 0.461  GM3:-0.0640  RAES: 1.90
     2s    -16.686243    2.339881
     2p    -12.523956    2.014332
  8     Wed Apr 25 08:07:45 CEST 2018   EN: 3.440 GM2: 0.452  GM3:-0.0517  RAES: 1.80
     2s    -20.229985    2.439742
     2p    -15.503117    2.137023


            Z     q(EN)     CN     RAES       Cart. coordinates
     1  N   5.0   -0.46    2.01    1.90    -0.96891     0.86619    -1.42669
     2  C   4.0    0.34    3.07    3.02    -0.65309    -1.08856    -0.18330
     3  N   5.0   -0.11    2.01    1.90    -2.36371    -3.10163     0.08437
     4  N   5.0   -0.15    1.00    1.90    -3.18117    -4.58971     1.34441
     5  O   6.0   -0.11    1.04    1.80     2.08221    -3.87631    -1.98622
     6  N   5.0   -0.15    2.06    1.90     3.01096    -3.13274     0.13692
     7  C   4.0    0.14    3.04    3.02     1.68590    -1.61845     1.37509
     8  H   1.0    0.33    1.00    1.43    -2.44378     1.01656    -2.60897
     9  H   1.0    0.17    0.99    1.43     1.98369    -0.97676     3.32304

           ------------------------------------------------- 
          |        Self-Consistent Charge Iterations        |
           ------------------------------------------------- 
q/qsh data taken from xtbrestart
CAMM data taken from xtbrestart

          ...................................................
          :                      SETUP                      :
          :.................................................:
          :  # basis functions                  30          :
          :  # atomic orbitals                  30          :
          :  # shells                           16          :
          :  # electrons                        36          :
          :  max. iterations                   250          :
          :  Hamiltonian                  GFN2-xTB          :
          :  restarted?                       true          :
          :  GBSA solvation                  false          :
          :  PC potential                    false          :
          :  electronic temp.          300.0000000     K    :
          :  accuracy                    0.2000000          :
          :  -> integral cutoff          0.3198970E+02      :
          :  -> integral neglect         0.2000000E-08      :
          :  -> SCF convergence          0.2000000E-06 Eh   :
          :  -> wf. convergence          0.2000000E-04 e    :
          :  Broyden damping             0.4000000          :
          ...................................................

 iter      E             dE          RMSdq      gap      omega  full diag
   1    -21.0560167 -0.210560E+02  0.115E+00    0.18       0.0  T
   2    -21.0307611  0.252557E-01  0.157E+00    0.57       1.0  T
   3    -21.0136798  0.170812E-01  0.195E+00    0.09       1.0  T
   4    -21.0592518 -0.455719E-01  0.549E-01    0.31       1.0  T
   5    -21.0619577 -0.270593E-02  0.271E-01    0.24       1.0  T
   6    -21.0622254 -0.267709E-03  0.192E-01    0.23       1.0  T
   7    -21.0623118 -0.863454E-04  0.119E-01    0.22       1.0  T
   8    -21.0624743 -0.162510E-03  0.325E-02    0.20       1.0  T
   9    -21.0624854 -0.111730E-04  0.564E-03    0.20       5.9  T
  10    -21.0624851  0.347153E-06  0.659E-03    0.20       5.1  T
  11    -21.0624855 -0.438181E-06  0.187E-03    0.20      17.8  T
  12    -21.0624856 -0.410509E-07  0.504E-04    0.20      66.1  T
  13    -21.0624856 -0.150482E-08  0.351E-04    0.20      95.0  T
  14    -21.0624856 -0.144134E-08  0.461E-05    0.20     723.1  T
  15    -21.0624856  0.186056E-10  0.492E-05    0.20     677.5  T

   *** convergence criteria satisfied after 15 iterations ***

         #    Occupation            Energy/Eh            Energy/eV
      -------------------------------------------------------------
         1        2.0000           -0.7650122             -20.8170
       ...           ...                  ...                  ...
        12        2.0000           -0.5483951             -14.9226
        13        2.0000           -0.5342547             -14.5378
        14        2.0000           -0.5155253             -14.0282
        15        2.0000           -0.4772551             -12.9868
        16        2.0000           -0.4496242             -12.2349
        17        2.0000           -0.4145989             -11.2818
        18        1.9562           -0.3780228             -10.2865 (HOMO)
        19        0.0438           -0.3708046             -10.0901 (LUMO)
        20                         -0.3460447              -9.4164
        21                         -0.2571452              -6.9973
        22                         -0.2450571              -6.6683
        23                          0.0105828               0.2880
       ...                                ...                  ...
        30                          0.7787442              21.1907
      -------------------------------------------------------------
                  HL-Gap            0.0072181 Eh            0.1964 eV
             Fermi-level           -0.3744137 Eh          -10.1883 eV

 SCC (total)                   0 d,  0 h,  0 min,  0.008 sec
 SCC setup                      ...        0 min,  0.000 sec (  1.597%)
 Dispersion                     ...        0 min,  0.000 sec (  0.920%)
 integral evaluation            ...        0 min,  0.001 sec ( 15.337%)
 zeroth order Hamiltonian       ...        0 min,  0.000 sec (  0.433%)
 iterations                     ...        0 min,  0.004 sec ( 53.821%)
 molecular gradient             ...        0 min,  0.002 sec ( 25.256%)
 printout                       ...        0 min,  0.000 sec (  2.185%)

         :::::::::::::::::::::::::::::::::::::::::::::::::::::
         ::                     SUMMARY                     ::
         :::::::::::::::::::::::::::::::::::::::::::::::::::::
         :: total energy              -20.811379821483 Eh   ::
         :: gradient norm               0.079468328076 Eh/α ::
         :: HOMO-LUMO gap               0.196415562444 eV   ::
         ::.................................................::
         :: SCC energy                -21.062485571946 Eh   ::
         :: -> isotropic ES             0.042988641446 Eh   ::
         :: -> anisotropic ES           0.000072924633 Eh   ::
         :: -> anisotropic XC           0.028501344396 Eh   ::
         :: -> dispersion              -0.006179173779 Eh   ::
         :: repulsion energy            0.251100428017 Eh   ::
         :: add. restraining            0.000000000000 Eh   ::
         :::::::::::::::::::::::::::::::::::::::::::::::::::::

           -------------------------------------------------
          |                Property Printout                |
           -------------------------------------------------

    * Orbital Energies and Occupations

         #    Occupation            Energy/Eh            Energy/eV
      -------------------------------------------------------------
         1        2.0000           -0.7650122             -20.8170
       ...           ...                  ...                  ...
         6        2.0000           -0.6368727             -17.3302
         7        2.0000           -0.6308533             -17.1664
         8        2.0000           -0.6059438             -16.4886
         9        2.0000           -0.5821692             -15.8416
        10        2.0000           -0.5645745             -15.3629
        11        2.0000           -0.5504055             -14.9773
        12        2.0000           -0.5483951             -14.9226
        13        2.0000           -0.5342547             -14.5378
        14        2.0000           -0.5155253             -14.0282
        15        2.0000           -0.4772551             -12.9868
        16        2.0000           -0.4496242             -12.2349
        17        2.0000           -0.4145989             -11.2818
        18        1.9562           -0.3780228             -10.2865 (HOMO)
        19        0.0438           -0.3708046             -10.0901 (LUMO)
        20                         -0.3460447              -9.4164
        21                         -0.2571452              -6.9973
        22                         -0.2450571              -6.6683
        23                          0.0105828               0.2880
        24                          0.0326597               0.8887
        25                          0.0629445               1.7128
        26                          0.1670354               4.5453
        27                          0.3092375               8.4148
        28                          0.5302197              14.4280
        29                          0.6087799              16.5657
        30                          0.7787442              21.1907
      -------------------------------------------------------------
                  HL-Gap            0.0072181 Eh            0.1964 eV
             Fermi-level           -0.3744137 Eh          -10.1883 eV

   #   Z        covCN         q      C6AA      α(0)
   1   7 N      1.779    -0.248    27.283     7.735
   2   6 C      2.863     0.201    23.730     7.985
   3   7 N      1.902     0.150    19.307     6.514
   4   7 N      0.985    -0.043    21.726     6.704
   5   8 O      0.957    -0.390    21.440     6.210
   6   7 N      1.890     0.064    20.777     6.757
   7   6 C      2.853     0.002    27.971     8.668
   8   1 H      0.861     0.193     1.145     1.676
   9   1 H      0.924     0.071     2.076     2.253

 Mol. C6AA /au·bohr⁶  :       1301.121501
 Mol. C8AA /au·bohr⁸  :      29698.453428
 Mol. α(0) /au        :         54.503862


Wiberg/Mayer (AO) data.
largest (>0.10) Wiberg bond orders for each atom
          total WBO             WBO to atom ...
     1  N   3.135        C    2 1.894    H    8 0.924    N    4 0.112
     2  C   3.927        N    1 1.894    N    3 0.964    C    7 0.873
     3  N   3.658        N    4 2.357    C    2 0.964    O    5 0.107    N    6 0.107
     4  N   2.959        N    3 2.357    O    5 0.175    N    6 0.147    N    1 0.112
     5  O   2.020        N    6 1.299    C    7 0.229    N    4 0.175    N    3 0.107
     6  N   3.334        C    7 1.732    O    5 1.299    N    4 0.147    N    3 0.107
     7  C   3.937        N    6 1.732    H    9 0.949    C    2 0.873    O    5 0.229
     8  H   0.963        N    1 0.924
     9  H   0.995        C    7 0.949

molecular dipole:
                 x           y           z       tot (Debye)
 q only:       -1.054       0.733       0.792
   full:       -1.338       0.759       0.804       4.412
molecular quadrupole (traceless):
                xx          xy          yy          xz          yz          zz
 q only:        2.776       4.115      -4.657       4.766      -4.806       1.881
  q+dip:        2.633       3.689      -6.535       6.406      -4.443       3.902
   full:        2.755       3.407      -6.828       6.232      -3.641       4.073


           -------------------------------------------------
          | TOTAL ENERGY              -20.811379821483 Eh   |
          | GRADIENT NORM               0.079468328076 Eh/α |
          | HOMO-LUMO GAP               0.196415562444 eV   |
           -------------------------------------------------

------------------------------------------------------------------------
 * finished run on 2021/06/02 at 10:00:07.781     
------------------------------------------------------------------------
 total:
 * wall-time:     0 d,  0 h,  0 min,  0.015 sec
 *  cpu-time:     0 d,  0 h,  0 min,  0.015 sec
 * ratio c/w:     0.986 speedup
 SCF:
 * wall-time:     0 d,  0 h,  0 min,  0.008 sec
 *  cpu-time:     0 d,  0 h,  0 min,  0.008 sec
 * ratio c/w:     1.000 speedup

