      -----------------------------------------------------------      
     |                   =====================                   |     
     |                           x T B                           |     
     |                   =====================                   |     
     |                         S. Grimme                         |     
     |          Mulliken Center for Theoretical Chemistry        |     
     |                    University of Bonn                     |     
     |                 Version 6.1.4 (SAW190525)                 |     
      -----------------------------------------------------------      

   This program is distributed in the hope that it will be useful,
   but WITHOUT ANY WARRANTY; without even the implied warranty of
   MERCHANTABILITY or FITNESS FOR A PARTICULAR PURPOSE.
   
   FOR NON-COMMERCIAL, ACADEMIA USE ONLY.
   
   Cite this work as:
   S. Grimme, C. Bannwarth, P. Shushkov, J. Comput. Theory Chem., 2017,
   13, 1989-2009. DOI: 10.1021/acs.jctc.7b00118
   C. Bannwarth, S. Ehlert and S. Grimme., J. Comput. Theory Chem., 2019,
   just accepted. DOI: 10.1021/acs.jctc.8b01176
   
   for sTDA-xTB:
   S. Grimme and C. Bannwarth, J. Chem. Phys., 2016, 145, 054103.
   DOI: 10.1063/1.4959605
   
   in the mass-spec context:
   V. Asgeirsson, C. Bauer and S. Grimme, Chem. Sci., 2017, 8, 4879.
   DOI: 10.1039/c7sc00601b
   
   for metadynamics refer to:
   S. Grimme, J. Chem. Theory Comput. Article ASAP, 2019,
   DOI: 10.1021/acs.jctc.9b00143
   
   with help from (in alphabetical order)
   C. Bannwarth, F. Bohle, G. Brandenburg, E. Caldeweyher, M. Checinski,
   S. Dohm, S. Ehlert, S. Ehrlich, F. März, H. Neugebauer, J. Pisarek,
   P. Pracht, P. Shushkov, and S. Spicher.
   
 * started run on 2021/06/02 at 10:00:07.468     

           -------------------------------------------------
          |                Calculation Setup                |
           -------------------------------------------------

          program call               : /groups/kemi/koerstz/opt/xtb/6.1/bin/xtb path_point_19.xyz --gfn2 --acc 0.2 --chrg 0
          hostname                   : node305
          coordinate file            : path_point_19.xyz
          omp threads                :                     1
          number of atoms            :                     9
          number of electrons        :                    36
          charge                     :                     0
          spin                       :                   0.0
          first test random number   :      0.19891146892098


########################################################################
# WARNING! Please study the warnings concerning your input carefully
#  - XTBPATH is not set, using XTBHOME instead
########################################################################

           ------------------------------------------------- 
          |                 G F N 2 - x T B                 |
          | Geometry, Frequencies, Noncovalent interactions |
          |            JCTC 2018 parametrisation            |
           ------------------------------------------------- 
             k(s)              :                1.8500
             k(p)              :                2.2300
             k(d)              :                2.2300
             k(f)              :                2.0000
             kEN (H0ij)        :               -2.0000
             D4 a1             :                0.5200
             D4 a2             :                5.0000
             D4 s6             :                1.0000
             D4 s8             :                2.7000
             D4 s9             :                5.0000
             alphaj            :                2.0000

  Z AO/shell   Hii/eV     exponent
  1     Wed Apr 25 08:07:45 CEST 2018   EN: 2.200 GM2: 0.406  GM3: 0.0800  RAES: 1.40
     1s    -10.707211    1.230000
  6     Wed Apr 25 08:07:45 CEST 2018   EN: 2.550 GM2: 0.538  GM3: 0.1500  RAES: 3.00
     2s    -13.970922    2.096432
     2p    -10.063292    1.800000
  7     Wed Apr 25 08:07:45 CEST 2018   EN: 3.040 GM2: 0.461  GM3:-0.0640  RAES: 1.90
     2s    -16.686243    2.339881
     2p    -12.523956    2.014332
  8     Wed Apr 25 08:07:45 CEST 2018   EN: 3.440 GM2: 0.452  GM3:-0.0517  RAES: 1.80
     2s    -20.229985    2.439742
     2p    -15.503117    2.137023


            Z     q(EN)     CN     RAES       Cart. coordinates
     1  N   5.0   -0.45    2.01    1.90    -0.95822     0.80805    -1.49539
     2  C   4.0    0.34    3.04    3.02    -0.68866    -1.08424    -0.15230
     3  N   5.0   -0.12    2.01    1.90    -2.47876    -3.02595     0.19630
     4  N   5.0   -0.15    1.00    1.90    -3.26230    -4.51723     1.53966
     5  O   6.0   -0.11    1.03    1.80     2.39444    -3.71668    -2.12887
     6  N   5.0   -0.15    2.04    1.90     3.08073    -3.06988     0.07082
     7  C   4.0    0.14    3.03    3.02     1.64659    -1.68683     1.35772
     8  H   1.0    0.33    1.00    1.43    -2.46281     0.95230    -2.67103
     9  H   1.0    0.17    0.99    1.43     1.88110    -1.16094     3.34173

           ------------------------------------------------- 
          |        Self-Consistent Charge Iterations        |
           ------------------------------------------------- 

          ...................................................
          :                      SETUP                      :
          :.................................................:
          :  # basis functions                  30          :
          :  # atomic orbitals                  30          :
          :  # shells                           16          :
          :  # electrons                        36          :
          :  max. iterations                   250          :
          :  Hamiltonian                  GFN2-xTB          :
          :  restarted?                      false          :
          :  GBSA solvation                  false          :
          :  PC potential                    false          :
          :  electronic temp.          300.0000000     K    :
          :  accuracy                    0.2000000          :
          :  -> integral cutoff          0.3198970E+02      :
          :  -> integral neglect         0.2000000E-08      :
          :  -> SCF convergence          0.2000000E-06 Eh   :
          :  -> wf. convergence          0.2000000E-04 e    :
          :  Broyden damping             0.4000000          :
          ...................................................

 iter      E             dE          RMSdq      gap      omega  full diag
   1    -20.8302381 -0.208302E+02  0.711E+00    2.37       0.0  T
   2    -20.0519774  0.778261E+00  0.809E+00    0.29       1.0  T
   3    -20.8754493 -0.823472E+00  0.519E+00    2.87       1.0  T
   4    -20.9369620 -0.615126E-01  0.373E+00    2.00       1.0  T
   5    -21.0141867 -0.772247E-01  0.208E+00    0.73       1.0  T
   6    -21.0490158 -0.348291E-01  0.118E+00    0.36       1.0  T
   7    -21.0498874 -0.871617E-03  0.117E+00    0.36       1.0  T
   8    -20.7809657  0.268922E+00  0.476E+00    0.10       1.0  T
   9    -21.0412534 -0.260288E+00  0.108E+00    0.13       1.0  T
  10    -20.7870761  0.254177E+00  0.472E+00    0.08       1.0  T
  11    -21.0533111 -0.266235E+00  0.255E-01    0.13       1.0  T
  12    -21.0534015 -0.903980E-04  0.225E-01    0.13       1.0  T
  13    -21.0540164 -0.614915E-03  0.717E-02    0.14       1.0  T
  14    -21.0540605 -0.441355E-04  0.248E-02    0.14       1.3  T
  15    -21.0540363  0.242841E-04  0.512E-02    0.13       1.0  T
  16    -21.0540672 -0.309266E-04  0.120E-02    0.14       2.8  T
  17    -21.0540685 -0.129170E-05  0.420E-03    0.14       7.9  T
  18    -21.0540684  0.297681E-07  0.460E-03    0.14       7.2  T
  19    -21.0540685 -0.868280E-07  0.328E-03    0.14      10.2  T
  20    -21.0540686 -0.488793E-07  0.225E-03    0.14      14.8  T
  21    -21.0540686 -0.335974E-07  0.126E-03    0.14      26.5  T
  22    -21.0540686 -0.113702E-07  0.615E-04    0.14      54.2  T
  23    -21.0540686 -0.380810E-08  0.121E-04    0.14     275.1  T
  24    -21.0540686 -0.144528E-09  0.267E-05    0.14    1249.2  T

   *** convergence criteria satisfied after 24 iterations ***

         #    Occupation            Energy/Eh            Energy/eV
      -------------------------------------------------------------
         1        2.0000           -0.7531398             -20.4940
       ...           ...                  ...                  ...
        12        2.0000           -0.5485103             -14.9257
        13        2.0000           -0.5295431             -14.4096
        14        2.0000           -0.5170367             -14.0693
        15        2.0000           -0.4847001             -13.1894
        16        2.0000           -0.4500668             -12.2469
        17        2.0000           -0.4150363             -11.2937
        18        1.8693           -0.3765341             -10.2460 (HOMO)
        19        0.1307           -0.3714792             -10.1085 (LUMO)
        20                         -0.3495991              -9.5131
        21                         -0.2538204              -6.9068
        22                         -0.2522409              -6.8638
        23                          0.0130390               0.3548
       ...                                ...                  ...
        30                          0.6934548              18.8699
      -------------------------------------------------------------
                  HL-Gap            0.0050548 Eh            0.1375 eV
             Fermi-level           -0.3740067 Eh          -10.1772 eV

 SCC (total)                   0 d,  0 h,  0 min,  0.010 sec
 SCC setup                      ...        0 min,  0.000 sec (  1.318%)
 Dispersion                     ...        0 min,  0.000 sec (  0.599%)
 integral evaluation            ...        0 min,  0.001 sec ( 10.996%)
 zeroth order Hamiltonian       ...        0 min,  0.000 sec (  0.954%)
 iterations                     ...        0 min,  0.006 sec ( 64.085%)
 molecular gradient             ...        0 min,  0.002 sec ( 19.868%)
 printout                       ...        0 min,  0.000 sec (  1.832%)

         :::::::::::::::::::::::::::::::::::::::::::::::::::::
         ::                     SUMMARY                     ::
         :::::::::::::::::::::::::::::::::::::::::::::::::::::
         :: total energy              -20.814577430410 Eh   ::
         :: gradient norm               0.061206337940 Eh/α ::
         :: HOMO-LUMO gap               0.137548737574 eV   ::
         ::.................................................::
         :: SCC energy                -21.054068624113 Eh   ::
         :: -> isotropic ES             0.039930828330 Eh   ::
         :: -> anisotropic ES           0.000656634978 Eh   ::
         :: -> anisotropic XC           0.027514872253 Eh   ::
         :: -> dispersion              -0.006115491741 Eh   ::
         :: repulsion energy            0.239485483661 Eh   ::
         :: add. restraining            0.000000000000 Eh   ::
         :::::::::::::::::::::::::::::::::::::::::::::::::::::

           -------------------------------------------------
          |                Property Printout                |
           -------------------------------------------------

    * Orbital Energies and Occupations

         #    Occupation            Energy/Eh            Energy/eV
      -------------------------------------------------------------
         1        2.0000           -0.7531398             -20.4940
       ...           ...                  ...                  ...
         6        2.0000           -0.6349003             -17.2765
         7        2.0000           -0.6209747             -16.8976
         8        2.0000           -0.5985531             -16.2875
         9        2.0000           -0.5835963             -15.8805
        10        2.0000           -0.5665421             -15.4164
        11        2.0000           -0.5577075             -15.1760
        12        2.0000           -0.5485103             -14.9257
        13        2.0000           -0.5295431             -14.4096
        14        2.0000           -0.5170367             -14.0693
        15        2.0000           -0.4847001             -13.1894
        16        2.0000           -0.4500668             -12.2469
        17        2.0000           -0.4150363             -11.2937
        18        1.8693           -0.3765341             -10.2460 (HOMO)
        19        0.1307           -0.3714792             -10.1085 (LUMO)
        20                         -0.3495991              -9.5131
        21                         -0.2538204              -6.9068
        22                         -0.2522409              -6.8638
        23                          0.0130390               0.3548
        24                          0.0246132               0.6698
        25                          0.0752190               2.0468
        26                          0.1672179               4.5502
        27                          0.3294657               8.9652
        28                          0.5258458              14.3090
        29                          0.6007931              16.3484
        30                          0.6934548              18.8699
      -------------------------------------------------------------
                  HL-Gap            0.0050548 Eh            0.1375 eV
             Fermi-level           -0.3740067 Eh          -10.1772 eV

   #   Z        covCN         q      C6AA      α(0)
   1   7 N      1.779    -0.238    27.046     7.702
   2   6 C      2.841     0.200    23.757     7.988
   3   7 N      1.903     0.116    19.880     6.610
   4   7 N      0.984    -0.058    22.018     6.749
   5   8 O      0.947    -0.383    21.302     6.190
   6   7 N      1.874     0.104    20.090     6.644
   7   6 C      2.848    -0.011    28.280     8.716
   8   1 H      0.860     0.195     1.131     1.666
   9   1 H      0.924     0.076     2.023     2.224

 Mol. C6AA /au·bohr⁶  :       1300.322623
 Mol. C8AA /au·bohr⁸  :      29699.594880
 Mol. α(0) /au        :         54.488559


Wiberg/Mayer (AO) data.
largest (>0.10) Wiberg bond orders for each atom
          total WBO             WBO to atom ...
     1  N   3.099        C    2 1.911    H    8 0.922    N    4 0.109
     2  C   3.912        N    1 1.911    N    3 0.973    C    7 0.882
     3  N   3.581        N    4 2.309    C    2 0.973
     4  N   2.844        N    3 2.309    N    6 0.144    O    5 0.135    N    1 0.109
     5  O   1.927        N    6 1.360    C    7 0.270    N    4 0.135
     6  N   3.386        C    7 1.696    O    5 1.360    N    4 0.144
     7  C   3.925        N    6 1.696    H    9 0.947    C    2 0.882    O    5 0.270
     8  H   0.962        N    1 0.922
     9  H   0.994        C    7 0.947

molecular dipole:
                 x           y           z       tot (Debye)
 q only:       -0.960       0.725       0.799
   full:       -1.211       0.734       0.827       4.168
molecular quadrupole (traceless):
                xx          xy          yy          xz          yz          zz
 q only:        2.325       3.265      -4.117       5.443      -4.742       1.792
  q+dip:        2.402       2.625      -5.805       7.422      -4.480       3.403
   full:        2.532       2.143      -5.856       7.161      -3.586       3.324


           -------------------------------------------------
          | TOTAL ENERGY              -20.814577430410 Eh   |
          | GRADIENT NORM               0.061206337940 Eh/α |
          | HOMO-LUMO GAP               0.137548737574 eV   |
           -------------------------------------------------

------------------------------------------------------------------------
 * finished run on 2021/06/02 at 10:00:07.487     
------------------------------------------------------------------------
 total:
 * wall-time:     0 d,  0 h,  0 min,  0.018 sec
 *  cpu-time:     0 d,  0 h,  0 min,  0.017 sec
 * ratio c/w:     0.983 speedup
 SCF:
 * wall-time:     0 d,  0 h,  0 min,  0.010 sec
 *  cpu-time:     0 d,  0 h,  0 min,  0.010 sec
 * ratio c/w:     0.992 speedup

