      -----------------------------------------------------------      
     |                   =====================                   |     
     |                           x T B                           |     
     |                   =====================                   |     
     |                         S. Grimme                         |     
     |          Mulliken Center for Theoretical Chemistry        |     
     |                    University of Bonn                     |     
     |                 Version 6.1.4 (SAW190525)                 |     
      -----------------------------------------------------------      

   This program is distributed in the hope that it will be useful,
   but WITHOUT ANY WARRANTY; without even the implied warranty of
   MERCHANTABILITY or FITNESS FOR A PARTICULAR PURPOSE.
   
   FOR NON-COMMERCIAL, ACADEMIA USE ONLY.
   
   Cite this work as:
   S. Grimme, C. Bannwarth, P. Shushkov, J. Comput. Theory Chem., 2017,
   13, 1989-2009. DOI: 10.1021/acs.jctc.7b00118
   C. Bannwarth, S. Ehlert and S. Grimme., J. Comput. Theory Chem., 2019,
   just accepted. DOI: 10.1021/acs.jctc.8b01176
   
   for sTDA-xTB:
   S. Grimme and C. Bannwarth, J. Chem. Phys., 2016, 145, 054103.
   DOI: 10.1063/1.4959605
   
   in the mass-spec context:
   V. Asgeirsson, C. Bauer and S. Grimme, Chem. Sci., 2017, 8, 4879.
   DOI: 10.1039/c7sc00601b
   
   for metadynamics refer to:
   S. Grimme, J. Chem. Theory Comput. Article ASAP, 2019,
   DOI: 10.1021/acs.jctc.9b00143
   
   with help from (in alphabetical order)
   C. Bannwarth, F. Bohle, G. Brandenburg, E. Caldeweyher, M. Checinski,
   S. Dohm, S. Ehlert, S. Ehrlich, F. März, H. Neugebauer, J. Pisarek,
   P. Pracht, P. Shushkov, and S. Spicher.
   
 * started run on 2021/06/02 at 10:00:07.846     

           -------------------------------------------------
          |                Calculation Setup                |
           -------------------------------------------------

          program call               : /groups/kemi/koerstz/opt/xtb/6.1/bin/xtb path_point_13.xyz --gfn2 --acc 0.2 --chrg 0
          hostname                   : node305
          coordinate file            : path_point_13.xyz
          omp threads                :                     1
          number of atoms            :                     9
          number of electrons        :                    36
          charge                     :                     0
          spin                       :                   0.0
          first test random number   :      0.50069729357924


########################################################################
# WARNING! Please study the warnings concerning your input carefully
#  - XTBPATH is not set, using XTBHOME instead
########################################################################

           ------------------------------------------------- 
          |                 G F N 2 - x T B                 |
          | Geometry, Frequencies, Noncovalent interactions |
          |            JCTC 2018 parametrisation            |
           ------------------------------------------------- 
             k(s)              :                1.8500
             k(p)              :                2.2300
             k(d)              :                2.2300
             k(f)              :                2.0000
             kEN (H0ij)        :               -2.0000
             D4 a1             :                0.5200
             D4 a2             :                5.0000
             D4 s6             :                1.0000
             D4 s8             :                2.7000
             D4 s9             :                5.0000
             alphaj            :                2.0000

  Z AO/shell   Hii/eV     exponent
  1     Wed Apr 25 08:07:45 CEST 2018   EN: 2.200 GM2: 0.406  GM3: 0.0800  RAES: 1.40
     1s    -10.707211    1.230000
  6     Wed Apr 25 08:07:45 CEST 2018   EN: 2.550 GM2: 0.538  GM3: 0.1500  RAES: 3.00
     2s    -13.970922    2.096432
     2p    -10.063292    1.800000
  7     Wed Apr 25 08:07:45 CEST 2018   EN: 3.040 GM2: 0.461  GM3:-0.0640  RAES: 1.90
     2s    -16.686243    2.339881
     2p    -12.523956    2.014332
  8     Wed Apr 25 08:07:45 CEST 2018   EN: 3.440 GM2: 0.452  GM3:-0.0517  RAES: 1.80
     2s    -20.229985    2.439742
     2p    -15.503117    2.137023


            Z     q(EN)     CN     RAES       Cart. coordinates
     1  N   5.0   -0.46    2.01    1.90    -0.96624     0.85165    -1.44387
     2  C   4.0    0.34    3.06    3.02    -0.66198    -1.08748    -0.17555
     3  N   5.0   -0.11    2.01    1.90    -2.39247    -3.08271     0.11235
     4  N   5.0   -0.15    1.00    1.90    -3.20145    -4.57159     1.39323
     5  O   6.0   -0.11    1.04    1.80     2.16027    -3.83640    -2.02189
     6  N   5.0   -0.15    2.06    1.90     3.02840    -3.11703     0.12039
     7  C   4.0    0.14    3.04    3.02     1.67608    -1.63554     1.37074
     8  H   1.0    0.33    1.00    1.43    -2.44853     1.00050    -2.62449
     9  H   1.0    0.17    0.99    1.43     1.95804    -1.02280     3.32771

           ------------------------------------------------- 
          |        Self-Consistent Charge Iterations        |
           ------------------------------------------------- 
q/qsh data taken from xtbrestart
CAMM data taken from xtbrestart

          ...................................................
          :                      SETUP                      :
          :.................................................:
          :  # basis functions                  30          :
          :  # atomic orbitals                  30          :
          :  # shells                           16          :
          :  # electrons                        36          :
          :  max. iterations                   250          :
          :  Hamiltonian                  GFN2-xTB          :
          :  restarted?                       true          :
          :  GBSA solvation                  false          :
          :  PC potential                    false          :
          :  electronic temp.          300.0000000     K    :
          :  accuracy                    0.2000000          :
          :  -> integral cutoff          0.3198970E+02      :
          :  -> integral neglect         0.2000000E-08      :
          :  -> SCF convergence          0.2000000E-06 Eh   :
          :  -> wf. convergence          0.2000000E-04 e    :
          :  Broyden damping             0.4000000          :
          ...................................................

 iter      E             dE          RMSdq      gap      omega  full diag
   1    -20.9803877 -0.209804E+02  0.268E+00    0.07       0.0  T
   2    -20.9168685  0.635192E-01  0.373E+00    2.27       1.0  T
   3    -21.0166395 -0.997710E-01  0.186E+00    0.80       1.0  T
   4    -21.0575804 -0.409409E-01  0.630E-01    0.28       1.0  T
   5    -21.0573413  0.239184E-03  0.552E-01    0.25       1.0  T
   6    -21.0602672 -0.292591E-02  0.131E-01    0.17       1.0  T
   7    -21.0603075 -0.403575E-04  0.626E-02    0.16       1.0  T
   8    -21.0588486  0.145892E-02  0.343E-01    0.12       1.0  T
   9    -21.0591407 -0.292091E-03  0.306E-01    0.13       1.0  T
  10    -21.0603283 -0.118765E-02  0.324E-02    0.16       1.0  T
  11    -21.0603418 -0.134811E-04  0.759E-03    0.16       4.4  T
  12    -21.0603417  0.137774E-06  0.885E-03    0.16       3.8  T
  13    -21.0603425 -0.788932E-06  0.363E-03    0.16       9.2  T
  14    -21.0603426 -0.157609E-06  0.286E-04    0.16     116.4  T
  15    -21.0603426  0.413876E-08  0.595E-04    0.16      56.0  T
  16    -21.0603426 -0.412190E-08  0.212E-04    0.16     157.5  T
  17    -21.0603426 -0.511356E-09  0.243E-05    0.16    1370.8  T
  18    -21.0603426 -0.639844E-11  0.676E-06    0.16    4931.1  T

   *** convergence criteria satisfied after 18 iterations ***

         #    Occupation            Energy/Eh            Energy/eV
      -------------------------------------------------------------
         1        2.0000           -0.7619646             -20.7341
       ...           ...                  ...                  ...
        12        2.0000           -0.5484927             -14.9252
        13        2.0000           -0.5331912             -14.5089
        14        2.0000           -0.5162937             -14.0491
        15        2.0000           -0.4791365             -13.0380
        16        2.0000           -0.4500475             -12.2464
        17        2.0000           -0.4142233             -11.2716
        18        1.9064           -0.3770210             -10.2593 (HOMO)
        19        0.0936           -0.3712933             -10.1034 (LUMO)
        20                         -0.3468737              -9.4389
        21                         -0.2556666              -6.9570
        22                         -0.2470418              -6.7223
        23                          0.0117248               0.3190
       ...                                ...                  ...
        30                          0.7573219              20.6078
      -------------------------------------------------------------
                  HL-Gap            0.0057278 Eh            0.1559 eV
             Fermi-level           -0.3741572 Eh          -10.1813 eV

 SCC (total)                   0 d,  0 h,  0 min,  0.008 sec
 SCC setup                      ...        0 min,  0.000 sec (  1.474%)
 Dispersion                     ...        0 min,  0.000 sec (  0.688%)
 integral evaluation            ...        0 min,  0.001 sec ( 13.064%)
 zeroth order Hamiltonian       ...        0 min,  0.000 sec (  0.374%)
 iterations                     ...        0 min,  0.005 sec ( 58.849%)
 molecular gradient             ...        0 min,  0.002 sec ( 23.243%)
 printout                       ...        0 min,  0.000 sec (  1.894%)

         :::::::::::::::::::::::::::::::::::::::::::::::::::::
         ::                     SUMMARY                     ::
         :::::::::::::::::::::::::::::::::::::::::::::::::::::
         :: total energy              -20.811695568541 Eh   ::
         :: gradient norm               0.069379730020 Eh/α ::
         :: HOMO-LUMO gap               0.155860082982 eV   ::
         ::.................................................::
         :: SCC energy                -21.060342635028 Eh   ::
         :: -> isotropic ES             0.042230697438 Eh   ::
         :: -> anisotropic ES           0.000220400199 Eh   ::
         :: -> anisotropic XC           0.028085895747 Eh   ::
         :: -> dispersion              -0.006165457143 Eh   ::
         :: repulsion energy            0.248641651284 Eh   ::
         :: add. restraining            0.000000000000 Eh   ::
         :::::::::::::::::::::::::::::::::::::::::::::::::::::

           -------------------------------------------------
          |                Property Printout                |
           -------------------------------------------------

    * Orbital Energies and Occupations

         #    Occupation            Energy/Eh            Energy/eV
      -------------------------------------------------------------
         1        2.0000           -0.7619646             -20.7341
       ...           ...                  ...                  ...
         6        2.0000           -0.6359321             -17.3046
         7        2.0000           -0.6285174             -17.1028
         8        2.0000           -0.6042962             -16.4437
         9        2.0000           -0.5824560             -15.8494
        10        2.0000           -0.5651591             -15.3788
        11        2.0000           -0.5519998             -15.0207
        12        2.0000           -0.5484927             -14.9252
        13        2.0000           -0.5331912             -14.5089
        14        2.0000           -0.5162937             -14.0491
        15        2.0000           -0.4791365             -13.0380
        16        2.0000           -0.4500475             -12.2464
        17        2.0000           -0.4142233             -11.2716
        18        1.9064           -0.3770210             -10.2593 (HOMO)
        19        0.0936           -0.3712933             -10.1034 (LUMO)
        20                         -0.3468737              -9.4389
        21                         -0.2556666              -6.9570
        22                         -0.2470418              -6.7223
        23                          0.0117248               0.3190
        24                          0.0309015               0.8409
        25                          0.0681709               1.8550
        26                          0.1671317               4.5479
        27                          0.3161731               8.6035
        28                          0.5310431              14.4504
        29                          0.6072295              16.5236
        30                          0.7573219              20.6078
      -------------------------------------------------------------
                  HL-Gap            0.0057278 Eh            0.1559 eV
             Fermi-level           -0.3741572 Eh          -10.1813 eV

   #   Z        covCN         q      C6AA      α(0)
   1   7 N      1.779    -0.244    27.192     7.723
   2   6 C      2.856     0.202    23.720     7.983
   3   7 N      1.902     0.141    19.469     6.542
   4   7 N      0.985    -0.047    21.796     6.715
   5   8 O      0.955    -0.389    21.421     6.208
   6   7 N      1.886     0.075    20.591     6.727
   7   6 C      2.852    -0.002    28.065     8.683
   8   1 H      0.860     0.194     1.139     1.672
   9   1 H      0.924     0.071     2.070     2.250

 Mol. C6AA /au·bohr⁶  :       1300.944720
 Mol. C8AA /au·bohr⁸  :      29698.523128
 Mol. α(0) /au        :         54.500413


Wiberg/Mayer (AO) data.
largest (>0.10) Wiberg bond orders for each atom
          total WBO             WBO to atom ...
     1  N   3.115        C    2 1.902    H    8 0.923    N    4 0.112
     2  C   3.919        N    1 1.902    N    3 0.966    C    7 0.874
     3  N   3.623        N    4 2.340    C    2 0.966    N    6 0.102
     4  N   2.904        N    3 2.340    O    5 0.153    N    6 0.141    N    1 0.112
     5  O   1.972        N    6 1.314    C    7 0.240    N    4 0.153
     6  N   3.333        C    7 1.724    O    5 1.314    N    4 0.141    N    3 0.102
     7  C   3.931        N    6 1.724    H    9 0.949    C    2 0.874    O    5 0.240
     8  H   0.962        N    1 0.923
     9  H   0.994        C    7 0.949

molecular dipole:
                 x           y           z       tot (Debye)
 q only:       -1.035       0.738       0.791
   full:       -1.310       0.760       0.809       4.365
molecular quadrupole (traceless):
                xx          xy          yy          xz          yz          zz
 q only:        2.675       3.903      -4.535       4.932      -4.809       1.860
  q+dip:        2.595       3.408      -6.360       6.649      -4.487       3.765
   full:        2.705       3.079      -6.590       6.456      -3.653       3.884


           -------------------------------------------------
          | TOTAL ENERGY              -20.811695568541 Eh   |
          | GRADIENT NORM               0.069379730020 Eh/α |
          | HOMO-LUMO GAP               0.155860082982 eV   |
           -------------------------------------------------

------------------------------------------------------------------------
 * finished run on 2021/06/02 at 10:00:07.862     
------------------------------------------------------------------------
 total:
 * wall-time:     0 d,  0 h,  0 min,  0.016 sec
 *  cpu-time:     0 d,  0 h,  0 min,  0.015 sec
 * ratio c/w:     0.987 speedup
 SCF:
 * wall-time:     0 d,  0 h,  0 min,  0.008 sec
 *  cpu-time:     0 d,  0 h,  0 min,  0.008 sec
 * ratio c/w:     1.000 speedup

