      -----------------------------------------------------------      
     |                   =====================                   |     
     |                           x T B                           |     
     |                   =====================                   |     
     |                         S. Grimme                         |     
     |          Mulliken Center for Theoretical Chemistry        |     
     |                    University of Bonn                     |     
     |                 Version 6.1.4 (SAW190525)                 |     
      -----------------------------------------------------------      

   This program is distributed in the hope that it will be useful,
   but WITHOUT ANY WARRANTY; without even the implied warranty of
   MERCHANTABILITY or FITNESS FOR A PARTICULAR PURPOSE.
   
   FOR NON-COMMERCIAL, ACADEMIA USE ONLY.
   
   Cite this work as:
   S. Grimme, C. Bannwarth, P. Shushkov, J. Comput. Theory Chem., 2017,
   13, 1989-2009. DOI: 10.1021/acs.jctc.7b00118
   C. Bannwarth, S. Ehlert and S. Grimme., J. Comput. Theory Chem., 2019,
   just accepted. DOI: 10.1021/acs.jctc.8b01176
   
   for sTDA-xTB:
   S. Grimme and C. Bannwarth, J. Chem. Phys., 2016, 145, 054103.
   DOI: 10.1063/1.4959605
   
   in the mass-spec context:
   V. Asgeirsson, C. Bauer and S. Grimme, Chem. Sci., 2017, 8, 4879.
   DOI: 10.1039/c7sc00601b
   
   for metadynamics refer to:
   S. Grimme, J. Chem. Theory Comput. Article ASAP, 2019,
   DOI: 10.1021/acs.jctc.9b00143
   
   with help from (in alphabetical order)
   C. Bannwarth, F. Bohle, G. Brandenburg, E. Caldeweyher, M. Checinski,
   S. Dohm, S. Ehlert, S. Ehrlich, F. März, H. Neugebauer, J. Pisarek,
   P. Pracht, P. Shushkov, and S. Spicher.
   
 * started run on 2021/06/02 at 10:00:07.639     

           -------------------------------------------------
          |                Calculation Setup                |
           -------------------------------------------------

          program call               : /groups/kemi/koerstz/opt/xtb/6.1/bin/xtb path_point_6.xyz --gfn2 --acc 0.2 --chrg 0
          hostname                   : node305
          coordinate file            : path_point_6.xyz
          omp threads                :                     1
          number of atoms            :                     9
          number of electrons        :                    36
          charge                     :                     0
          spin                       :                   0.0
          first test random number   :      0.52003729725404


########################################################################
# WARNING! Please study the warnings concerning your input carefully
#  - XTBPATH is not set, using XTBHOME instead
########################################################################

           ------------------------------------------------- 
          |                 G F N 2 - x T B                 |
          | Geometry, Frequencies, Noncovalent interactions |
          |            JCTC 2018 parametrisation            |
           ------------------------------------------------- 
             k(s)              :                1.8500
             k(p)              :                2.2300
             k(d)              :                2.2300
             k(f)              :                2.0000
             kEN (H0ij)        :               -2.0000
             D4 a1             :                0.5200
             D4 a2             :                5.0000
             D4 s6             :                1.0000
             D4 s8             :                2.7000
             D4 s9             :                5.0000
             alphaj            :                2.0000

  Z AO/shell   Hii/eV     exponent
  1     Wed Apr 25 08:07:45 CEST 2018   EN: 2.200 GM2: 0.406  GM3: 0.0800  RAES: 1.40
     1s    -10.707211    1.230000
  6     Wed Apr 25 08:07:45 CEST 2018   EN: 2.550 GM2: 0.538  GM3: 0.1500  RAES: 3.00
     2s    -13.970922    2.096432
     2p    -10.063292    1.800000
  7     Wed Apr 25 08:07:45 CEST 2018   EN: 3.040 GM2: 0.461  GM3:-0.0640  RAES: 1.90
     2s    -16.686243    2.339881
     2p    -12.523956    2.014332
  8     Wed Apr 25 08:07:45 CEST 2018   EN: 3.440 GM2: 0.452  GM3:-0.0517  RAES: 1.80
     2s    -20.229985    2.439742
     2p    -15.503117    2.137023


            Z     q(EN)     CN     RAES       Cart. coordinates
     1  N   5.0   -0.46    2.01    1.90    -0.98709     0.94341    -1.37912
     2  C   4.0    0.34    3.06    3.02    -0.64495    -1.03324    -0.17696
     3  N   5.0   -0.11    2.01    1.90    -2.27029    -3.11268    -0.00409
     4  N   5.0   -0.15    1.00    1.90    -3.07173    -4.70664     1.14470
     5  O   6.0   -0.11    1.04    1.80     1.87892    -4.06565    -1.82076
     6  N   5.0   -0.15    2.06    1.90     2.93611    -3.24190     0.21421
     7  C   4.0    0.14    3.04    3.02     1.70243    -1.56917     1.37048
     8  H   1.0    0.33    1.00    1.43    -2.47078     1.09306    -2.55292
     9  H   1.0    0.17    0.99    1.43     2.07950    -0.80861     3.26311

           ------------------------------------------------- 
          |        Self-Consistent Charge Iterations        |
           ------------------------------------------------- 
q/qsh data taken from xtbrestart
CAMM data taken from xtbrestart

          ...................................................
          :                      SETUP                      :
          :.................................................:
          :  # basis functions                  30          :
          :  # atomic orbitals                  30          :
          :  # shells                           16          :
          :  # electrons                        36          :
          :  max. iterations                   250          :
          :  Hamiltonian                  GFN2-xTB          :
          :  restarted?                       true          :
          :  GBSA solvation                  false          :
          :  PC potential                    false          :
          :  electronic temp.          300.0000000     K    :
          :  accuracy                    0.2000000          :
          :  -> integral cutoff          0.3198970E+02      :
          :  -> integral neglect         0.2000000E-08      :
          :  -> SCF convergence          0.2000000E-06 Eh   :
          :  -> wf. convergence          0.2000000E-04 e    :
          :  Broyden damping             0.4000000          :
          ...................................................

 iter      E             dE          RMSdq      gap      omega  full diag
   1    -21.0384162 -0.210384E+02  0.198E+00    0.76       0.0  T
   2    -20.6201723  0.418244E+00  0.579E+00    0.16       1.0  T
   3    -21.0520268 -0.431855E+00  0.111E+00    0.61       1.0  T
   4    -21.0590613 -0.703449E-02  0.595E-01    0.47       1.0  T
   5    -21.0613058 -0.224447E-02  0.250E-01    0.38       1.0  T
   6    -21.0613475 -0.417209E-04  0.156E-01    0.37       1.0  T
   7    -21.0615038 -0.156290E-03  0.734E-02    0.34       1.0  T
   8    -21.0615394 -0.356137E-04  0.358E-02    0.34       1.0  T
   9    -21.0615528 -0.133731E-04  0.827E-03    0.33       4.0  T
  10    -21.0615529 -0.747188E-07  0.401E-03    0.33       8.3  T
  11    -21.0615529 -0.564493E-07  0.176E-03    0.33      18.9  T
  12    -21.0615529 -0.300406E-07  0.837E-04    0.33      39.8  T
  13    -21.0615530 -0.363780E-08  0.346E-04    0.33      96.4  T
  14    -21.0615530 -0.127420E-08  0.486E-05    0.33     686.0  T
  15    -21.0615530 -0.582290E-11  0.889E-06    0.33    3750.2  T

   *** convergence criteria satisfied after 15 iterations ***

         #    Occupation            Energy/Eh            Energy/eV
      -------------------------------------------------------------
         1        2.0000           -0.7628565             -20.7584
       ...           ...                  ...                  ...
        12        2.0000           -0.5480064             -14.9120
        13        2.0000           -0.5338707             -14.5274
        14        2.0000           -0.5151732             -14.0186
        15        2.0000           -0.4777821             -13.0011
        16        2.0000           -0.4487472             -12.2110
        17        2.0000           -0.4174852             -11.3604
        18        1.9967           -0.3817754             -10.3886 (HOMO)
        19        0.0033           -0.3696162             -10.0578 (LUMO)
        20                         -0.3451435              -9.3918
        21                         -0.2646383              -7.2012
        22                         -0.2385282              -6.4907
        23                          0.0094886               0.2582
       ...                                ...                  ...
        30                          0.7720963              21.0098
      -------------------------------------------------------------
                  HL-Gap            0.0121591 Eh            0.3309 eV
             Fermi-level           -0.3756958 Eh          -10.2232 eV

 SCC (total)                   0 d,  0 h,  0 min,  0.008 sec
 SCC setup                      ...        0 min,  0.000 sec (  1.613%)
 Dispersion                     ...        0 min,  0.000 sec (  0.711%)
 integral evaluation            ...        0 min,  0.001 sec ( 13.854%)
 zeroth order Hamiltonian       ...        0 min,  0.000 sec (  0.400%)
 iterations                     ...        0 min,  0.004 sec ( 55.451%)
 molecular gradient             ...        0 min,  0.002 sec ( 25.363%)
 printout                       ...        0 min,  0.000 sec (  2.170%)

         :::::::::::::::::::::::::::::::::::::::::::::::::::::
         ::                     SUMMARY                     ::
         :::::::::::::::::::::::::::::::::::::::::::::::::::::
         :: total energy              -20.815513017383 Eh   ::
         :: gradient norm               0.056696819172 Eh/α ::
         :: HOMO-LUMO gap               0.330867085788 eV   ::
         ::.................................................::
         :: SCC energy                -21.061552954590 Eh   ::
         :: -> isotropic ES             0.042077742305 Eh   ::
         :: -> anisotropic ES          -0.000031733714 Eh   ::
         :: -> anisotropic XC           0.029093852426 Eh   ::
         :: -> dispersion              -0.006203199221 Eh   ::
         :: repulsion energy            0.246034851402 Eh   ::
         :: add. restraining            0.000000000000 Eh   ::
         :::::::::::::::::::::::::::::::::::::::::::::::::::::

           -------------------------------------------------
          |                Property Printout                |
           -------------------------------------------------

    * Orbital Energies and Occupations

         #    Occupation            Energy/Eh            Energy/eV
      -------------------------------------------------------------
         1        2.0000           -0.7628565             -20.7584
       ...           ...                  ...                  ...
         6        2.0000           -0.6368587             -17.3298
         7        2.0000           -0.6295069             -17.1298
         8        2.0000           -0.6055343             -16.4774
         9        2.0000           -0.5831173             -15.8674
        10        2.0000           -0.5646487             -15.3649
        11        2.0000           -0.5487680             -14.9327
        12        2.0000           -0.5480064             -14.9120
        13        2.0000           -0.5338707             -14.5274
        14        2.0000           -0.5151732             -14.0186
        15        2.0000           -0.4777821             -13.0011
        16        2.0000           -0.4487472             -12.2110
        17        2.0000           -0.4174852             -11.3604
        18        1.9967           -0.3817754             -10.3886 (HOMO)
        19        0.0033           -0.3696162             -10.0578 (LUMO)
        20                         -0.3451435              -9.3918
        21                         -0.2646383              -7.2012
        22                         -0.2385282              -6.4907
        23                          0.0094886               0.2582
        24                          0.0312869               0.8514
        25                          0.0628245               1.7095
        26                          0.1656913               4.5087
        27                          0.3022711               8.2252
        28                          0.5011299              13.6364
        29                          0.6129782              16.6800
        30                          0.7720963              21.0098
      -------------------------------------------------------------
                  HL-Gap            0.0121591 Eh            0.3309 eV
             Fermi-level           -0.3756958 Eh          -10.2232 eV

   #   Z        covCN         q      C6AA      α(0)
   1   7 N      1.779    -0.257    27.497     7.766
   2   6 C      2.858     0.200    23.758     7.989
   3   7 N      1.904     0.162    19.121     6.483
   4   7 N      0.985    -0.043    21.714     6.702
   5   8 O      0.961    -0.381    21.251     6.183
   6   7 N      1.884     0.051    21.018     6.796
   7   6 C      2.857     0.006    27.880     8.654
   8   1 H      0.861     0.189     1.162     1.689
   9   1 H      0.924     0.072     2.063     2.246

 Mol. C6AA /au·bohr⁶  :       1301.248476
 Mol. C8AA /au·bohr⁸  :      29699.837900
 Mol. α(0) /au        :         54.508803


Wiberg/Mayer (AO) data.
largest (>0.10) Wiberg bond orders for each atom
          total WBO             WBO to atom ...
     1  N   3.140        C    2 1.884    H    8 0.925    O    5 0.114
     2  C   3.936        N    1 1.884    N    3 0.973    C    7 0.882
     3  N   3.701        N    4 2.364    C    2 0.973    O    5 0.130    N    6 0.105
     4  N   3.006        N    3 2.364    O    5 0.216    N    6 0.145
     5  O   2.083        N    6 1.292    N    4 0.216    C    7 0.212    N    3 0.130    N    1 0.114
     6  N   3.315        C    7 1.721    O    5 1.292    N    4 0.145    N    3 0.105
     7  C   3.943        N    6 1.721    H    9 0.950    C    2 0.882    O    5 0.212
     8  H   0.964        N    1 0.925
     9  H   0.995        C    7 0.950

molecular dipole:
                 x           y           z       tot (Debye)
 q only:       -0.986       0.770       0.734
   full:       -1.281       0.820       0.733       4.290
molecular quadrupole (traceless):
                xx          xy          yy          xz          yz          zz
 q only:        3.168       4.014      -5.391       4.285      -4.476       2.223
  q+dip:        3.139       3.666      -7.608       5.739      -4.057       4.468
   full:        3.329       3.461      -8.173       5.510      -3.342       4.844


           -------------------------------------------------
          | TOTAL ENERGY              -20.815513017383 Eh   |
          | GRADIENT NORM               0.056696819172 Eh/α |
          | HOMO-LUMO GAP               0.330867085788 eV   |
           -------------------------------------------------

------------------------------------------------------------------------
 * finished run on 2021/06/02 at 10:00:07.654     
------------------------------------------------------------------------
 total:
 * wall-time:     0 d,  0 h,  0 min,  0.015 sec
 *  cpu-time:     0 d,  0 h,  0 min,  0.015 sec
 * ratio c/w:     0.987 speedup
 SCF:
 * wall-time:     0 d,  0 h,  0 min,  0.008 sec
 *  cpu-time:     0 d,  0 h,  0 min,  0.008 sec
 * ratio c/w:     1.000 speedup

