      -----------------------------------------------------------      
     |                   =====================                   |     
     |                           x T B                           |     
     |                   =====================                   |     
     |                         S. Grimme                         |     
     |          Mulliken Center for Theoretical Chemistry        |     
     |                    University of Bonn                     |     
     |                 Version 6.1.4 (SAW190525)                 |     
      -----------------------------------------------------------      

   This program is distributed in the hope that it will be useful,
   but WITHOUT ANY WARRANTY; without even the implied warranty of
   MERCHANTABILITY or FITNESS FOR A PARTICULAR PURPOSE.
   
   FOR NON-COMMERCIAL, ACADEMIA USE ONLY.
   
   Cite this work as:
   S. Grimme, C. Bannwarth, P. Shushkov, J. Comput. Theory Chem., 2017,
   13, 1989-2009. DOI: 10.1021/acs.jctc.7b00118
   C. Bannwarth, S. Ehlert and S. Grimme., J. Comput. Theory Chem., 2019,
   just accepted. DOI: 10.1021/acs.jctc.8b01176
   
   for sTDA-xTB:
   S. Grimme and C. Bannwarth, J. Chem. Phys., 2016, 145, 054103.
   DOI: 10.1063/1.4959605
   
   in the mass-spec context:
   V. Asgeirsson, C. Bauer and S. Grimme, Chem. Sci., 2017, 8, 4879.
   DOI: 10.1039/c7sc00601b
   
   for metadynamics refer to:
   S. Grimme, J. Chem. Theory Comput. Article ASAP, 2019,
   DOI: 10.1021/acs.jctc.9b00143
   
   with help from (in alphabetical order)
   C. Bannwarth, F. Bohle, G. Brandenburg, E. Caldeweyher, M. Checinski,
   S. Dohm, S. Ehlert, S. Ehrlich, F. März, H. Neugebauer, J. Pisarek,
   P. Pracht, P. Shushkov, and S. Spicher.
   
 * started run on 2021/06/02 at 10:00:07.887     

           -------------------------------------------------
          |                Calculation Setup                |
           -------------------------------------------------

          program call               : /groups/kemi/koerstz/opt/xtb/6.1/bin/xtb path_point_15.xyz --gfn2 --acc 0.2 --chrg 0
          hostname                   : node305
          coordinate file            : path_point_15.xyz
          omp threads                :                     1
          number of atoms            :                     9
          number of electrons        :                    36
          charge                     :                     0
          spin                       :                   0.0
          first test random number   :      0.55351346081525


########################################################################
# WARNING! Please study the warnings concerning your input carefully
#  - XTBPATH is not set, using XTBHOME instead
########################################################################

           ------------------------------------------------- 
          |                 G F N 2 - x T B                 |
          | Geometry, Frequencies, Noncovalent interactions |
          |            JCTC 2018 parametrisation            |
           ------------------------------------------------- 
             k(s)              :                1.8500
             k(p)              :                2.2300
             k(d)              :                2.2300
             k(f)              :                2.0000
             kEN (H0ij)        :               -2.0000
             D4 a1             :                0.5200
             D4 a2             :                5.0000
             D4 s6             :                1.0000
             D4 s8             :                2.7000
             D4 s9             :                5.0000
             alphaj            :                2.0000

  Z AO/shell   Hii/eV     exponent
  1     Wed Apr 25 08:07:45 CEST 2018   EN: 2.200 GM2: 0.406  GM3: 0.0800  RAES: 1.40
     1s    -10.707211    1.230000
  6     Wed Apr 25 08:07:45 CEST 2018   EN: 2.550 GM2: 0.538  GM3: 0.1500  RAES: 3.00
     2s    -13.970922    2.096432
     2p    -10.063292    1.800000
  7     Wed Apr 25 08:07:45 CEST 2018   EN: 3.040 GM2: 0.461  GM3:-0.0640  RAES: 1.90
     2s    -16.686243    2.339881
     2p    -12.523956    2.014332
  8     Wed Apr 25 08:07:45 CEST 2018   EN: 3.440 GM2: 0.452  GM3:-0.0517  RAES: 1.80
     2s    -20.229985    2.439742
     2p    -15.503117    2.137023


            Z     q(EN)     CN     RAES       Cart. coordinates
     1  N   5.0   -0.46    2.01    1.90    -0.96356     0.83712    -1.46104
     2  C   4.0    0.34    3.05    3.02    -0.67088    -1.08640    -0.16780
     3  N   5.0   -0.12    2.01    1.90    -2.42123    -3.06379     0.14033
     4  N   5.0   -0.15    1.00    1.90    -3.22174    -4.55347     1.44204
     5  O   6.0   -0.11    1.03    1.80     2.23832    -3.79650    -2.05755
     6  N   5.0   -0.15    2.05    1.90     3.04584    -3.10131     0.10387
     7  C   4.0    0.14    3.03    3.02     1.66625    -1.65264     1.36640
     8  H   1.0    0.33    1.00    1.43    -2.45329     0.98443    -2.64000
     9  H   1.0    0.17    0.99    1.43     1.93240    -1.06885     3.33238

           ------------------------------------------------- 
          |        Self-Consistent Charge Iterations        |
           ------------------------------------------------- 
q/qsh data taken from xtbrestart
CAMM data taken from xtbrestart

          ...................................................
          :                      SETUP                      :
          :.................................................:
          :  # basis functions                  30          :
          :  # atomic orbitals                  30          :
          :  # shells                           16          :
          :  # electrons                        36          :
          :  max. iterations                   250          :
          :  Hamiltonian                  GFN2-xTB          :
          :  restarted?                       true          :
          :  GBSA solvation                  false          :
          :  PC potential                    false          :
          :  electronic temp.          300.0000000     K    :
          :  accuracy                    0.2000000          :
          :  -> integral cutoff          0.3198970E+02      :
          :  -> integral neglect         0.2000000E-08      :
          :  -> SCF convergence          0.2000000E-06 Eh   :
          :  -> wf. convergence          0.2000000E-04 e    :
          :  Broyden damping             0.4000000          :
          ...................................................

 iter      E             dE          RMSdq      gap      omega  full diag
   1    -20.9034779 -0.209035E+02  0.431E+00    0.22       0.0  T
   2    -20.8644957  0.389822E-01  0.452E+00    2.76       1.0  T
   3    -21.0017808 -0.137285E+00  0.223E+00    0.91       1.0  T
   4    -21.0424460 -0.406653E-01  0.122E+00    0.10       1.0  T
   5    -21.0390662  0.337981E-02  0.129E+00    0.41       1.0  T
   6    -21.0273575  0.117087E-01  0.150E+00    0.06       1.0  T
   7    -21.0560654 -0.287079E-01  0.506E-01    0.21       1.0  T
   8    -21.0508252  0.524025E-02  0.760E-01    0.25       1.0  T
   9    -21.0557185 -0.489332E-02  0.455E-01    0.19       1.0  T
  10    -21.0581322 -0.241375E-02  0.728E-02    0.13       1.0  T
  11    -21.0581806 -0.483245E-04  0.478E-02    0.14       1.0  T
  12    -21.0582072 -0.266231E-04  0.429E-03    0.13       7.8  T
  13    -21.0582066  0.577986E-06  0.765E-03    0.13       4.4  T
  14    -21.0582074 -0.755454E-06  0.561E-04    0.13      59.4  T
  15    -21.0582073  0.506151E-07  0.201E-03    0.14      16.6  T
  16    -21.0582074 -0.500824E-07  0.482E-04    0.14      69.2  T
  17    -21.0582074 -0.276700E-08  0.173E-04    0.13     193.1  T
  18    -21.0582074 -0.305388E-09  0.267E-05    0.13    1248.0  T

   *** convergence criteria satisfied after 18 iterations ***

         #    Occupation            Energy/Eh            Energy/eV
      -------------------------------------------------------------
         1        2.0000           -0.7588566             -20.6495
       ...           ...                  ...                  ...
        12        2.0000           -0.5485381             -14.9265
        13        2.0000           -0.5319134             -14.4741
        14        2.0000           -0.5168680             -14.0647
        15        2.0000           -0.4810323             -13.0896
        16        2.0000           -0.4502812             -12.2528
        17        2.0000           -0.4141560             -11.2698
        18        1.8631           -0.3764338             -10.2433 (HOMO)
        19        0.1369           -0.3714736             -10.1083 (LUMO)
        20                         -0.3476987              -9.4614
        21                         -0.2544308              -6.9234
        22                         -0.2491465              -6.7796
        23                          0.0124475               0.3387
       ...                                ...                  ...
        30                          0.7360616              20.0293
      -------------------------------------------------------------
                  HL-Gap            0.0049602 Eh            0.1350 eV
             Fermi-level           -0.3739537 Eh          -10.1758 eV

 SCC (total)                   0 d,  0 h,  0 min,  0.008 sec
 SCC setup                      ...        0 min,  0.000 sec (  1.265%)
 Dispersion                     ...        0 min,  0.000 sec (  0.701%)
 integral evaluation            ...        0 min,  0.001 sec ( 13.431%)
 zeroth order Hamiltonian       ...        0 min,  0.000 sec (  0.278%)
 iterations                     ...        0 min,  0.005 sec ( 57.822%)
 molecular gradient             ...        0 min,  0.002 sec ( 24.182%)
 printout                       ...        0 min,  0.000 sec (  1.916%)

         :::::::::::::::::::::::::::::::::::::::::::::::::::::
         ::                     SUMMARY                     ::
         :::::::::::::::::::::::::::::::::::::::::::::::::::::
         :: total energy              -20.812310773514 Eh   ::
         :: gradient norm               0.062390430642 Eh/α ::
         :: HOMO-LUMO gap               0.134973860458 eV   ::
         ::.................................................::
         :: SCC energy                -21.058207373425 Eh   ::
         :: -> isotropic ES             0.041495356564 Eh   ::
         :: -> anisotropic ES           0.000361683159 Eh   ::
         :: -> anisotropic XC           0.027740223854 Eh   ::
         :: -> dispersion              -0.006150157058 Eh   ::
         :: repulsion energy            0.245891089243 Eh   ::
         :: add. restraining            0.000000000000 Eh   ::
         :::::::::::::::::::::::::::::::::::::::::::::::::::::

           -------------------------------------------------
          |                Property Printout                |
           -------------------------------------------------

    * Orbital Energies and Occupations

         #    Occupation            Energy/Eh            Energy/eV
      -------------------------------------------------------------
         1        2.0000           -0.7588566             -20.6495
       ...           ...                  ...                  ...
         6        2.0000           -0.6353668             -17.2892
         7        2.0000           -0.6259312             -17.0325
         8        2.0000           -0.6024450             -16.3934
         9        2.0000           -0.5828123             -15.8591
        10        2.0000           -0.5657133             -15.3938
        11        2.0000           -0.5538480             -15.0710
        12        2.0000           -0.5485381             -14.9265
        13        2.0000           -0.5319134             -14.4741
        14        2.0000           -0.5168680             -14.0647
        15        2.0000           -0.4810323             -13.0896
        16        2.0000           -0.4502812             -12.2528
        17        2.0000           -0.4141560             -11.2698
        18        1.8631           -0.3764338             -10.2433 (HOMO)
        19        0.1369           -0.3714736             -10.1083 (LUMO)
        20                         -0.3476987              -9.4614
        21                         -0.2544308              -6.9234
        22                         -0.2491465              -6.7796
        23                          0.0124475               0.3387
        24                          0.0289885               0.7888
        25                          0.0719411               1.9576
        26                          0.1671884               4.5494
        27                          0.3219361               8.7603
        28                          0.5305950              14.4382
        29                          0.6052517              16.4697
        30                          0.7360616              20.0293
      -------------------------------------------------------------
                  HL-Gap            0.0049602 Eh            0.1350 eV
             Fermi-level           -0.3739537 Eh          -10.1758 eV

   #   Z        covCN         q      C6AA      α(0)
   1   7 N      1.779    -0.241    27.121     7.712
   2   6 C      2.851     0.202    23.719     7.982
   3   7 N      1.903     0.131    19.623     6.568
   4   7 N      0.985    -0.051    21.871     6.726
   5   8 O      0.952    -0.388    21.399     6.204
   6   7 N      1.882     0.086    20.404     6.696
   7   6 C      2.851    -0.005    28.152     8.696
   8   1 H      0.860     0.195     1.134     1.668
   9   1 H      0.924     0.073     2.057     2.243

 Mol. C6AA /au·bohr⁶  :       1300.741047
 Mol. C8AA /au·bohr⁸  :      29698.733520
 Mol. α(0) /au        :         54.496327


Wiberg/Mayer (AO) data.
largest (>0.10) Wiberg bond orders for each atom
          total WBO             WBO to atom ...
     1  N   3.098        C    2 1.908    H    8 0.922    N    4 0.110
     2  C   3.911        N    1 1.908    N    3 0.968    C    7 0.876
     3  N   3.593        N    4 2.325    C    2 0.968
     4  N   2.856        N    3 2.325    N    6 0.136    O    5 0.134    N    1 0.110
     5  O   1.929        N    6 1.330    C    7 0.252    N    4 0.134
     6  N   3.338        C    7 1.715    O    5 1.330    N    4 0.136
     7  C   3.926        N    6 1.715    H    9 0.949    C    2 0.876    O    5 0.252
     8  H   0.962        N    1 0.922
     9  H   0.994        C    7 0.949

molecular dipole:
                 x           y           z       tot (Debye)
 q only:       -1.011       0.740       0.792
   full:       -1.277       0.757       0.816       4.304
molecular quadrupole (traceless):
                xx          xy          yy          xz          yz          zz
 q only:        2.569       3.681      -4.409       5.106      -4.802       1.840
  q+dip:        2.553       3.122      -6.188       6.910      -4.514       3.635
   full:        2.662       2.738      -6.354       6.696      -3.653       3.692


           -------------------------------------------------
          | TOTAL ENERGY              -20.812310773514 Eh   |
          | GRADIENT NORM               0.062390430642 Eh/α |
          | HOMO-LUMO GAP               0.134973860458 eV   |
           -------------------------------------------------

------------------------------------------------------------------------
 * finished run on 2021/06/02 at 10:00:07.903     
------------------------------------------------------------------------
 total:
 * wall-time:     0 d,  0 h,  0 min,  0.015 sec
 *  cpu-time:     0 d,  0 h,  0 min,  0.015 sec
 * ratio c/w:     0.986 speedup
 SCF:
 * wall-time:     0 d,  0 h,  0 min,  0.008 sec
 *  cpu-time:     0 d,  0 h,  0 min,  0.008 sec
 * ratio c/w:     1.000 speedup

