      -----------------------------------------------------------      
     |                   =====================                   |     
     |                           x T B                           |     
     |                   =====================                   |     
     |                         S. Grimme                         |     
     |          Mulliken Center for Theoretical Chemistry        |     
     |                    University of Bonn                     |     
     |                 Version 6.1.4 (SAW190525)                 |     
      -----------------------------------------------------------      

   This program is distributed in the hope that it will be useful,
   but WITHOUT ANY WARRANTY; without even the implied warranty of
   MERCHANTABILITY or FITNESS FOR A PARTICULAR PURPOSE.
   
   FOR NON-COMMERCIAL, ACADEMIA USE ONLY.
   
   Cite this work as:
   S. Grimme, C. Bannwarth, P. Shushkov, J. Comput. Theory Chem., 2017,
   13, 1989-2009. DOI: 10.1021/acs.jctc.7b00118
   C. Bannwarth, S. Ehlert and S. Grimme., J. Comput. Theory Chem., 2019,
   just accepted. DOI: 10.1021/acs.jctc.8b01176
   
   for sTDA-xTB:
   S. Grimme and C. Bannwarth, J. Chem. Phys., 2016, 145, 054103.
   DOI: 10.1063/1.4959605
   
   in the mass-spec context:
   V. Asgeirsson, C. Bauer and S. Grimme, Chem. Sci., 2017, 8, 4879.
   DOI: 10.1039/c7sc00601b
   
   for metadynamics refer to:
   S. Grimme, J. Chem. Theory Comput. Article ASAP, 2019,
   DOI: 10.1021/acs.jctc.9b00143
   
   with help from (in alphabetical order)
   C. Bannwarth, F. Bohle, G. Brandenburg, E. Caldeweyher, M. Checinski,
   S. Dohm, S. Ehlert, S. Ehrlich, F. März, H. Neugebauer, J. Pisarek,
   P. Pracht, P. Shushkov, and S. Spicher.
   
 * started run on 2021/06/02 at 10:00:07.786     

           -------------------------------------------------
          |                Calculation Setup                |
           -------------------------------------------------

          program call               : /groups/kemi/koerstz/opt/xtb/6.1/bin/xtb path_point_5.xyz --gfn2 --acc 0.2 --chrg 0
          hostname                   : node305
          coordinate file            : path_point_5.xyz
          omp threads                :                     1
          number of atoms            :                     9
          number of electrons        :                    36
          charge                     :                     0
          spin                       :                   0.0
          first test random number   :      0.52736178498052


########################################################################
# WARNING! Please study the warnings concerning your input carefully
#  - XTBPATH is not set, using XTBHOME instead
########################################################################

           ------------------------------------------------- 
          |                 G F N 2 - x T B                 |
          | Geometry, Frequencies, Noncovalent interactions |
          |            JCTC 2018 parametrisation            |
           ------------------------------------------------- 
             k(s)              :                1.8500
             k(p)              :                2.2300
             k(d)              :                2.2300
             k(f)              :                2.0000
             kEN (H0ij)        :               -2.0000
             D4 a1             :                0.5200
             D4 a2             :                5.0000
             D4 s6             :                1.0000
             D4 s8             :                2.7000
             D4 s9             :                5.0000
             alphaj            :                2.0000

  Z AO/shell   Hii/eV     exponent
  1     Wed Apr 25 08:07:45 CEST 2018   EN: 2.200 GM2: 0.406  GM3: 0.0800  RAES: 1.40
     1s    -10.707211    1.230000
  6     Wed Apr 25 08:07:45 CEST 2018   EN: 2.550 GM2: 0.538  GM3: 0.1500  RAES: 3.00
     2s    -13.970922    2.096432
     2p    -10.063292    1.800000
  7     Wed Apr 25 08:07:45 CEST 2018   EN: 3.040 GM2: 0.461  GM3:-0.0640  RAES: 1.90
     2s    -16.686243    2.339881
     2p    -12.523956    2.014332
  8     Wed Apr 25 08:07:45 CEST 2018   EN: 3.440 GM2: 0.452  GM3:-0.0517  RAES: 1.80
     2s    -20.229985    2.439742
     2p    -15.503117    2.137023


            Z     q(EN)     CN     RAES       Cart. coordinates
     1  N   5.0   -0.46    2.01    1.90    -0.99130     0.96090    -1.36937
     2  C   4.0    0.34    3.06    3.02    -0.64402    -1.01927    -0.17441
     3  N   5.0   -0.11    2.01    1.90    -2.25053    -3.11308    -0.02271
     4  N   5.0   -0.15    1.00    1.90    -3.04691    -4.73361     1.10087
     5  O   6.0   -0.11    1.04    1.80     1.83785    -4.10800    -1.78385
     6  N   5.0   -0.15    2.05    1.90     2.91957    -3.26722     0.23146
     7  C   4.0    0.14    3.04    3.02     1.70533    -1.55899     1.36879
     8  H   1.0    0.33    1.00    1.43    -2.47812     1.11018    -2.54085
     9  H   1.0    0.17    0.99    1.43     2.10024    -0.77232     3.24871

           ------------------------------------------------- 
          |        Self-Consistent Charge Iterations        |
           ------------------------------------------------- 
q/qsh data taken from xtbrestart
CAMM data taken from xtbrestart

          ...................................................
          :                      SETUP                      :
          :.................................................:
          :  # basis functions                  30          :
          :  # atomic orbitals                  30          :
          :  # shells                           16          :
          :  # electrons                        36          :
          :  max. iterations                   250          :
          :  Hamiltonian                  GFN2-xTB          :
          :  restarted?                       true          :
          :  GBSA solvation                  false          :
          :  PC potential                    false          :
          :  electronic temp.          300.0000000     K    :
          :  accuracy                    0.2000000          :
          :  -> integral cutoff          0.3198970E+02      :
          :  -> integral neglect         0.2000000E-08      :
          :  -> SCF convergence          0.2000000E-06 Eh   :
          :  -> wf. convergence          0.2000000E-04 e    :
          :  Broyden damping             0.4000000          :
          ...................................................

 iter      E             dE          RMSdq      gap      omega  full diag
   1    -21.0575451 -0.210575E+02  0.115E+00    0.43       0.0  T
   2    -21.0584835 -0.938382E-03  0.565E-01    0.38       1.0  T
   3    -21.0591411 -0.657613E-03  0.440E-01    0.39       1.0  T
   4    -21.0590906  0.505445E-04  0.277E-01    0.33       1.0  T
   5    -21.0595441 -0.453565E-03  0.208E-01    0.40       1.0  T
   6    -21.0600461 -0.501938E-03  0.322E-02    0.36       1.0  T
   7    -21.0600475 -0.143444E-05  0.156E-02    0.36       2.1  T
   8    -21.0600487 -0.121632E-05  0.537E-03    0.36       6.2  T
   9    -21.0600488 -0.706779E-07  0.234E-03    0.36      14.2  T
  10    -21.0600488 -0.607325E-08  0.876E-04    0.36      38.0  T
  11    -21.0600488 -0.173944E-08  0.258E-04    0.36     129.0  T
  12    -21.0600488 -0.331898E-09  0.100E-04    0.36     332.2  T
  13    -21.0600488 -0.495284E-10  0.184E-05    0.36    1811.7  T

   *** convergence criteria satisfied after 13 iterations ***

         #    Occupation            Energy/Eh            Energy/eV
      -------------------------------------------------------------
         1        2.0000           -0.7615245             -20.7221
       ...           ...                  ...                  ...
        12        2.0000           -0.5478499             -14.9078
        13        2.0000           -0.5334748             -14.5166
        14        2.0000           -0.5153350             -14.0230
        15        2.0000           -0.4782914             -13.0150
        16        2.0000           -0.4487587             -12.2113
        17        2.0000           -0.4181179             -11.3776
        18        1.9981           -0.3826958             -10.4137 (HOMO)
        19        0.0019           -0.3694760             -10.0540 (LUMO)
        20                         -0.3450200              -9.3885
        21                         -0.2666518              -7.2560
        22                         -0.2375041              -6.4628
        23                          0.0090048               0.2450
       ...                                ...                  ...
        30                          0.7644902              20.8028
      -------------------------------------------------------------
                  HL-Gap            0.0132197 Eh            0.3597 eV
             Fermi-level           -0.3760859 Eh          -10.2338 eV

 SCC (total)                   0 d,  0 h,  0 min,  0.007 sec
 SCC setup                      ...        0 min,  0.000 sec (  1.702%)
 Dispersion                     ...        0 min,  0.000 sec (  0.838%)
 integral evaluation            ...        0 min,  0.001 sec ( 14.759%)
 zeroth order Hamiltonian       ...        0 min,  0.000 sec (  0.426%)
 iterations                     ...        0 min,  0.004 sec ( 52.499%)
 molecular gradient             ...        0 min,  0.002 sec ( 27.096%)
 printout                       ...        0 min,  0.000 sec (  2.196%)

         :::::::::::::::::::::::::::::::::::::::::::::::::::::
         ::                     SUMMARY                     ::
         :::::::::::::::::::::::::::::::::::::::::::::::::::::
         :: total energy              -20.816543916905 Eh   ::
         :: gradient norm               0.048380669427 Eh/α ::
         :: HOMO-LUMO gap               0.359727122074 eV   ::
         ::.................................................::
         :: SCC energy                -21.060048794058 Eh   ::
         :: -> isotropic ES             0.041724827734 Eh   ::
         :: -> anisotropic ES          -0.000046083437 Eh   ::
         :: -> anisotropic XC           0.029251593865 Eh   ::
         :: -> dispersion              -0.006205336024 Eh   ::
         :: repulsion energy            0.243499835708 Eh   ::
         :: add. restraining            0.000000000000 Eh   ::
         :::::::::::::::::::::::::::::::::::::::::::::::::::::

           -------------------------------------------------
          |                Property Printout                |
           -------------------------------------------------

    * Orbital Energies and Occupations

         #    Occupation            Energy/Eh            Energy/eV
      -------------------------------------------------------------
         1        2.0000           -0.7615245             -20.7221
       ...           ...                  ...                  ...
         6        2.0000           -0.6364995             -17.3200
         7        2.0000           -0.6287307             -17.1086
         8        2.0000           -0.6050821             -16.4651
         9        2.0000           -0.5833885             -15.8748
        10        2.0000           -0.5646700             -15.3655
        11        2.0000           -0.5482106             -14.9176
        12        2.0000           -0.5478499             -14.9078
        13        2.0000           -0.5334748             -14.5166
        14        2.0000           -0.5153350             -14.0230
        15        2.0000           -0.4782914             -13.0150
        16        2.0000           -0.4487587             -12.2113
        17        2.0000           -0.4181179             -11.3776
        18        1.9981           -0.3826958             -10.4137 (HOMO)
        19        0.0019           -0.3694760             -10.0540 (LUMO)
        20                         -0.3450200              -9.3885
        21                         -0.2666518              -7.2560
        22                         -0.2375041              -6.4628
        23                          0.0090048               0.2450
        24                          0.0298902               0.8134
        25                          0.0621919               1.6923
        26                          0.1648838               4.4867
        27                          0.2999923               8.1632
        28                          0.4915653              13.3762
        29                          0.6130326              16.6815
        30                          0.7644902              20.8028
      -------------------------------------------------------------
                  HL-Gap            0.0132197 Eh            0.3597 eV
             Fermi-level           -0.3760859 Eh          -10.2338 eV

   #   Z        covCN         q      C6AA      α(0)
   1   7 N      1.779    -0.258    27.527     7.770
   2   6 C      2.856     0.200    23.759     7.989
   3   7 N      1.904     0.163    19.106     6.480
   4   7 N      0.984    -0.043    21.726     6.704
   5   8 O      0.961    -0.378    21.203     6.176
   6   7 N      1.882     0.049    21.050     6.801
   7   6 C      2.857     0.006    27.875     8.654
   8   1 H      0.861     0.189     1.165     1.691
   9   1 H      0.923     0.073     2.057     2.243

 Mol. C6AA /au·bohr⁶  :       1301.218579
 Mol. C8AA /au·bohr⁸  :      29699.851333
 Mol. α(0) /au        :         54.508551


Wiberg/Mayer (AO) data.
largest (>0.10) Wiberg bond orders for each atom
          total WBO             WBO to atom ...
     1  N   3.138        C    2 1.884    H    8 0.926    O    5 0.115
     2  C   3.936        N    1 1.884    N    3 0.975    C    7 0.886
     3  N   3.705        N    4 2.362    C    2 0.975    O    5 0.135    N    6 0.104
     4  N   3.007        N    3 2.362    O    5 0.222    N    6 0.143
     5  O   2.090        N    6 1.293    N    4 0.222    C    7 0.210    N    3 0.135    N    1 0.115
     6  N   3.309        C    7 1.717    O    5 1.293    N    4 0.143    N    3 0.104
     7  C   3.944        N    6 1.717    H    9 0.950    C    2 0.886    O    5 0.210
     8  H   0.964        N    1 0.926
     9  H   0.995        C    7 0.950

molecular dipole:
                 x           y           z       tot (Debye)
 q only:       -0.964       0.784       0.718
   full:       -1.260       0.838       0.714       4.255
molecular quadrupole (traceless):
                xx          xy          yy          xz          yz          zz
 q only:        3.254       3.942      -5.569       4.197      -4.390       2.315
  q+dip:        3.256       3.603      -7.860       5.619      -3.961       4.604
   full:        3.464       3.408      -8.483       5.372      -3.264       5.020


           -------------------------------------------------
          | TOTAL ENERGY              -20.816543916905 Eh   |
          | GRADIENT NORM               0.048380669427 Eh/α |
          | HOMO-LUMO GAP               0.359727122074 eV   |
           -------------------------------------------------

------------------------------------------------------------------------
 * finished run on 2021/06/02 at 10:00:07.801     
------------------------------------------------------------------------
 total:
 * wall-time:     0 d,  0 h,  0 min,  0.015 sec
 *  cpu-time:     0 d,  0 h,  0 min,  0.015 sec
 * ratio c/w:     0.983 speedup
 SCF:
 * wall-time:     0 d,  0 h,  0 min,  0.007 sec
 *  cpu-time:     0 d,  0 h,  0 min,  0.007 sec
 * ratio c/w:     1.000 speedup

