      -----------------------------------------------------------      
     |                   =====================                   |     
     |                           x T B                           |     
     |                   =====================                   |     
     |                         S. Grimme                         |     
     |          Mulliken Center for Theoretical Chemistry        |     
     |                    University of Bonn                     |     
     |                 Version 6.1.4 (SAW190525)                 |     
      -----------------------------------------------------------      

   This program is distributed in the hope that it will be useful,
   but WITHOUT ANY WARRANTY; without even the implied warranty of
   MERCHANTABILITY or FITNESS FOR A PARTICULAR PURPOSE.
   
   FOR NON-COMMERCIAL, ACADEMIA USE ONLY.
   
   Cite this work as:
   S. Grimme, C. Bannwarth, P. Shushkov, J. Comput. Theory Chem., 2017,
   13, 1989-2009. DOI: 10.1021/acs.jctc.7b00118
   C. Bannwarth, S. Ehlert and S. Grimme., J. Comput. Theory Chem., 2019,
   just accepted. DOI: 10.1021/acs.jctc.8b01176
   
   for sTDA-xTB:
   S. Grimme and C. Bannwarth, J. Chem. Phys., 2016, 145, 054103.
   DOI: 10.1063/1.4959605
   
   in the mass-spec context:
   V. Asgeirsson, C. Bauer and S. Grimme, Chem. Sci., 2017, 8, 4879.
   DOI: 10.1039/c7sc00601b
   
   for metadynamics refer to:
   S. Grimme, J. Chem. Theory Comput. Article ASAP, 2019,
   DOI: 10.1021/acs.jctc.9b00143
   
   with help from (in alphabetical order)
   C. Bannwarth, F. Bohle, G. Brandenburg, E. Caldeweyher, M. Checinski,
   S. Dohm, S. Ehlert, S. Ehrlich, F. März, H. Neugebauer, J. Pisarek,
   P. Pracht, P. Shushkov, and S. Spicher.
   
 * started run on 2021/03/14 at 23:57:08.901     

           -------------------------------------------------
          |                Calculation Setup                |
           -------------------------------------------------

          program call               : /opt/xtb/6.1/xtb-190527/bin/xtb 0.8_md.xyz --md --input metadyn.inp --gfn 2
          hostname                   : mnode007
          coordinate file            : 0.8_md.xyz
          omp threads                :                     1
          number of atoms            :                    12
          number of electrons        :                    36
          charge                     :                     0
          spin                       :                   0.0
          first test random number   :      0.23540799087364

spherical wallpotenial with radius    3.6488561 Å

########################################################################
# WARNING! Please study the warnings concerning your input carefully
#  - XTBPATH is not set, using XTBHOME instead
########################################################################

           ------------------------------------------------- 
          |                 G F N 2 - x T B                 |
          | Geometry, Frequencies, Noncovalent interactions |
          |            JCTC 2018 parametrisation            |
           ------------------------------------------------- 
             k(s)              :                1.8500
             k(p)              :                2.2300
             k(d)              :                2.2300
             k(f)              :                2.0000
             kEN (H0ij)        :               -2.0000
             D4 a1             :                0.5200
             D4 a2             :                5.0000
             D4 s6             :                1.0000
             D4 s8             :                2.7000
             D4 s9             :                5.0000
             alphaj            :                2.0000

  Z AO/shell   Hii/eV     exponent
  1     Wed Apr 25 08:07:45 CEST 2018   EN: 2.200 GM2: 0.406  GM3: 0.0800  RAES: 1.40
     1s    -10.707211    1.230000
  6     Wed Apr 25 08:07:45 CEST 2018   EN: 2.550 GM2: 0.538  GM3: 0.1500  RAES: 3.00
     2s    -13.970922    2.096432
     2p    -10.063292    1.800000
  8     Wed Apr 25 08:07:45 CEST 2018   EN: 3.440 GM2: 0.452  GM3:-0.0517  RAES: 1.80
     2s    -20.229985    2.439742
     2p    -15.503117    2.137023


            Z     q(EN)     CN     RAES       Cart. coordinates
     1  C   4.0    0.08    2.99    3.02     1.70115     3.61696     0.19176
     2  O   6.0   -0.34    1.00    1.80     2.76313     4.75510     1.91162
     3  C   4.0   -0.10    3.98    3.58    -0.18770     1.53135     0.59324
     4  H   1.0    0.14    0.99    1.43     1.97669     4.44918    -1.70038
     5  C   4.0   -0.05    3.97    3.58     0.30679    -0.98032    -0.69709
     6  H   1.0    0.11    0.99    1.43    -2.08854     1.91092    -0.12730
     7  H   1.0    0.16    0.99    1.43    -0.44973     0.90749     2.54819
     8  O   6.0   -0.18    1.91    1.82     2.23118    -2.52459     0.39285
     9  H   1.0    0.13    0.99    1.43     1.35130    -0.57309    -2.43866
    10  H   1.0    0.12    0.99    1.43    -1.37234    -2.17656    -0.88601
    11  O   6.0   -0.33    1.92    1.82     1.34757    -3.59150     2.76784
    12  H   1.0    0.26    0.99    1.43     0.03035    -4.78196     2.27725

           ------------------------------------------------- 
          |        Self-Consistent Charge Iterations        |
           ------------------------------------------------- 

          ...................................................
          :                      SETUP                      :
          :.................................................:
          :  # basis functions                  30          :
          :  # atomic orbitals                  30          :
          :  # shells                           18          :
          :  # electrons                        36          :
          :  max. iterations                   250          :
          :  Hamiltonian                  GFN2-xTB          :
          :  restarted?                      false          :
          :  GBSA solvation                  false          :
          :  PC potential                    false          :
          :  electronic temp.         6000.0000000     K    :
          :  accuracy                    1.0000000          :
          :  -> integral cutoff          0.2500000E+02      :
          :  -> integral neglect         0.1000000E-07      :
          :  -> SCF convergence          0.1000000E-05 Eh   :
          :  -> wf. convergence          0.1000000E-03 e    :
          :  Broyden damping             0.4000000          :
          ...................................................

 iter      E             dE          RMSdq      gap      omega  full diag
   1    -21.6702265 -0.216702E+02  0.496E+00    4.29       0.0  T
   2    -21.7023194 -0.320929E-01  0.253E+00    3.37       1.0  T
   3    -21.7027552 -0.435805E-03  0.173E+00    3.94       1.0  T
   4    -21.7113735 -0.861828E-02  0.178E-01    3.58       1.0  T
   5    -21.7115502 -0.176679E-03  0.867E-02    3.62       1.0  T
   6    -21.7115572 -0.707884E-05  0.300E-02    3.62       1.0  T
   7    -21.7115585 -0.122356E-05  0.963E-03    3.62       3.0  T
   8    -21.7115588 -0.327393E-06  0.436E-03    3.62       6.6  T
   9    -21.7115588 -0.383045E-07  0.168E-03    3.62      17.2  T
  10    -21.7115588 -0.146807E-07  0.903E-04    3.62      32.0  T
  11    -21.7115588 -0.512560E-08  0.380E-04    3.62      75.9  T

   *** convergence criteria satisfied after 11 iterations ***

         #    Occupation            Energy/Eh            Energy/eV
      -------------------------------------------------------------
         1        2.0000           -0.7361143             -20.0307
       ...           ...                  ...                  ...
        12        1.9999           -0.5382571             -14.6467
        13        1.9997           -0.5152401             -14.0204
        14        1.9991           -0.4930477             -13.4165
        15        1.9988           -0.4872801             -13.2596
        16        1.9975           -0.4722624             -12.8509
        17        1.9894           -0.4449769             -12.1084
        18        1.9486           -0.4146387             -11.2829 (HOMO)
        19        0.0665           -0.2815404              -7.6611 (LUMO)
        20        0.0004           -0.1850042              -5.0342
        21                         -0.0024067              -0.0655
        22                          0.0375441               1.0216
        23                          0.0666165               1.8127
       ...                                ...                  ...
        30                          0.5137196              13.9790
      -------------------------------------------------------------
                  HL-Gap            0.1330983 Eh            3.6218 eV
             Fermi-level           -0.3455576 Eh           -9.4031 eV

 SCC (total)                   0 d,  0 h,  0 min,  0.902 sec
 SCC setup                      ...        0 min,  0.001 sec (  0.100%)
 Dispersion                     ...        0 min,  0.000 sec (  0.037%)
 integral evaluation            ...        0 min,  0.009 sec (  0.978%)
 zeroth order Hamiltonian       ...        0 min,  0.368 sec ( 40.785%)
 iterations                     ...        0 min,  0.019 sec (  2.065%)
 molecular gradient             ...        0 min,  0.008 sec (  0.868%)
 printout                       ...        0 min,  0.497 sec ( 55.158%)

         :::::::::::::::::::::::::::::::::::::::::::::::::::::
         ::                     SUMMARY                     ::
         :::::::::::::::::::::::::::::::::::::::::::::::::::::
         :: total energy              -21.548143286976 Eh   ::
         :: gradient norm               0.093719956061 Eh/α ::
         :: HOMO-LUMO gap               3.621789070107 eV   ::
         ::.................................................::
         :: SCC energy                -21.711558840014 Eh   ::
         :: -> isotropic ES             0.050736561677 Eh   ::
         :: -> anisotropic ES          -0.002909442484 Eh   ::
         :: -> anisotropic XC          -0.002012016729 Eh   ::
         :: -> dispersion              -0.005692119884 Eh   ::
         :: repulsion energy            0.163409202746 Eh   ::
         :: add. restraining            0.000000418606 Eh   ::
         :::::::::::::::::::::::::::::::::::::::::::::::::::::

           -------------------------------------------------
          |                Property Printout                |
           -------------------------------------------------

    * Orbital Energies and Occupations

         #    Occupation            Energy/Eh            Energy/eV
      -------------------------------------------------------------
         1        2.0000           -0.7361143             -20.0307
       ...           ...                  ...                  ...
         6        2.0000           -0.6193096             -16.8523
         7        2.0000           -0.5976488             -16.2629
         8        2.0000           -0.5938216             -16.1587
         9        2.0000           -0.5836884             -15.8830
        10        2.0000           -0.5578737             -15.1805
        11        2.0000           -0.5498279             -14.9616
        12        1.9999           -0.5382571             -14.6467
        13        1.9997           -0.5152401             -14.0204
        14        1.9991           -0.4930477             -13.4165
        15        1.9988           -0.4872801             -13.2596
        16        1.9975           -0.4722624             -12.8509
        17        1.9894           -0.4449769             -12.1084
        18        1.9486           -0.4146387             -11.2829 (HOMO)
        19        0.0665           -0.2815404              -7.6611 (LUMO)
        20        0.0004           -0.1850042              -5.0342
        21                         -0.0024067              -0.0655
        22                          0.0375441               1.0216
        23                          0.0666165               1.8127
        24                          0.1208142               3.2875
        25                          0.1359414               3.6992
        26                          0.1485448               4.0421
        27                          0.1874005               5.0994
        28                          0.2193265               5.9682
        29                          0.2923158               7.9543
        30                          0.5137196              13.9790
      -------------------------------------------------------------
                  HL-Gap            0.1330983 Eh            3.6218 eV
             Fermi-level           -0.3455576 Eh           -9.4031 eV

   #   Z        covCN         q      C6AA      α(0)
   1   6 C      2.756     0.204    23.659     7.965
   2   8 O      0.856    -0.315    20.059     6.005
   3   6 C      3.801    -0.089    22.206     6.709
   4   1 H      0.923     0.041     2.440     2.443
   5   6 C      3.674     0.076    19.543     6.335
   6   1 H      0.924     0.074     2.046     2.237
   7   1 H      0.924     0.097     1.816     2.108
   8   8 O      1.753    -0.211    17.497     5.648
   9   1 H      0.924     0.081     1.970     2.195
  10   1 H      0.924     0.048     2.340     2.392
  11   8 O      1.709    -0.313    19.227     5.920
  12   1 H      0.804     0.309     0.695     1.309

 Mol. C6AA /au·bohr⁶  :       1227.557494
 Mol. C8AA /au·bohr⁸  :      26109.840012
 Mol. α(0) /au        :         51.266256


Wiberg/Mayer (AO) data.
largest (>0.10) Wiberg bond orders for each atom
          total WBO             WBO to atom ...
     1  C   3.848        O    2 1.877    C    3 1.008    H    4 0.932
     2  O   2.008        C    1 1.877
     3  C   3.971        C    1 1.008    C    5 0.980    H    7 0.959    H    6 0.942
     4  H   0.984        C    1 0.932
     5  C   3.938        O    8 0.987    C    3 0.980    H   10 0.966    H    9 0.948
     6  H   0.990        C    3 0.942
     7  H   0.989        C    3 0.959
     8  O   2.019        C    5 0.987    O   11 0.970
     9  H   0.992        C    5 0.948
    10  H   0.995        C    5 0.966
    11  O   1.921        O    8 0.970    H   12 0.895
    12  H   0.904        O   11 0.895

molecular dipole:
                 x           y           z       tot (Debye)
 q only:       -1.441      -0.533      -0.988
   full:       -1.769      -0.737      -1.261       5.831
molecular quadrupole (traceless):
                xx          xy          yy          xz          yz          zz
 q only:       -1.588      -0.172       0.196      -5.059      -4.035       1.393
  q+dip:       -1.532       1.272       1.003      -6.868      -5.304       0.529
   full:       -1.510       0.272       0.955      -6.901      -5.365       0.555


           -------------------------------------------------
          | TOTAL ENERGY              -21.548143286976 Eh   |
          | GRADIENT NORM               0.093719956061 Eh/α |
          | HOMO-LUMO GAP               3.621789070107 eV   |
           -------------------------------------------------
           ------------------------------------------------- 
          |                  Meta Dynamics                  |
           ------------------------------------------------- 
 trajectories on xtb.trj or xtb.trj.<n>
 
 MD time /ps        :   50.00
 dt /fs             :    0.40
 SCC accuracy       :    2.00
 temperature /K     :  300.00
 max steps          :125000
 block length (av.) :  5000
 dumpstep(trj) /fs  :   10.00    25
 dumpstep(coords)/fs: 1000.00  2500
 H atoms mass (amu) :     2
 # deg. of freedom  :    36
 SHAKE off
 Berendsen THERMOSTAT on
kpush  :    0.050
alpha  :    0.300
update : 100
         time (ps)    <Epot>      Ekin   <T>   T     Etot
      0    0.00      0.00000   0.0428    0.    0.   -21.45539
est. speed in wall clock h for 100 ps :  0.98
    200    0.08    -21.39560   0.0368  533.  645.   -21.46427
    400    0.16    -21.45165   0.0575  648. 1009.   -21.46597
    600    0.24    -21.47901   0.0602  802. 1055.   -21.47279
    800    0.32    -21.49240   0.0501  844.  878.   -21.48088
   1000    0.40    -21.50040   0.0486  848.  853.   -21.48626
   1200    0.48    -21.50570   0.0549  837.  963.   -21.48905
   1400    0.56    -21.50925   0.0381  815.  668.   -21.49306
   1600    0.64    -21.51185   0.0444  790.  779.   -21.49791
   1800    0.72    -21.51432   0.0241  773.  422.   -21.49909
   2000    0.80    -21.51609   0.0285  751.  501.   -21.50029
   2200    0.88    -21.51786   0.0379  734.  665.   -21.50321
   2400    0.96    -21.51917   0.0242  714.  425.   -21.50600
   2600    1.04    -21.51948   0.0288  700.  505.   -21.46470
   2800    1.12    -21.51760   0.0353  689.  619.   -21.46295
   3000    1.20    -21.51640   0.0348  684.  610.   -21.46549
   3200    1.28    -21.51587   0.0295  686.  518.   -21.46993
   3400    1.36    -21.51547   0.0370  685.  650.   -21.47239
   3600    1.44    -21.51545   0.0286  686.  503.   -21.47722
   3800    1.52    -21.51567   0.0504  688.  884.   -21.48047
   4000    1.60    -21.51612   0.0382  691.  670.   -21.48414
   4200    1.68    -21.51619   0.0350  685.  614.   -21.48751
   4400    1.76    -21.51652   0.0424  682.  744.   -21.49076
   4600    1.84    -21.51693   0.0225  679.  394.   -21.49277
   4800    1.92    -21.51726   0.0378  673.  663.   -21.49359
block <Epot> / <T> :     -21.52202  669.     drift:  0.99D+02   Tbath : 300.
   5000    2.00    -21.51771   0.0216  669.  379.   -21.49584
   5200    2.08    -21.51692   0.0454  667.  797.   -21.45457
   5400    2.16    -21.51583   0.0409  663.  718.   -21.45674
   5600    2.24    -21.51498   0.0302  662.  531.   -21.45912
   5800    2.32    -21.51448   0.0485  663.  851.   -21.46212
   6000    2.40    -21.51428   0.0324  667.  568.   -21.46647
   6200    2.48    -21.51406   0.0438  667.  769.   -21.47082
   6400    2.56    -21.51404   0.0356  669.  624.   -21.47435
   6600    2.64    -21.51381   0.0345  665.  605.   -21.47639
   6800    2.72    -21.51372   0.0322  663.  565.   -21.47872
   7000    2.80    -21.51361   0.0203  659.  357.   -21.48073
   7200    2.88    -21.51358   0.0303  655.  532.   -21.48319
   7400    2.96    -21.51356   0.0213  651.  373.   -21.48436
   7600    3.04    -21.51326   0.0302  647.  529.   -21.44459
   7800    3.12    -21.51234   0.0383  646.  672.   -21.44343
   8000    3.20    -21.51166   0.0447  647.  785.   -21.44744
   8200    3.28    -21.51137   0.0569  653.  999.   -21.45209
   8400    3.36    -21.51094   0.0282  653.  494.   -21.45601
   8600    3.44    -21.51052   0.0390  652.  684.   -21.45862
   8800    3.52    -21.51023   0.0365  652.  640.   -21.46350
   9000    3.60    -21.51008   0.0256  653.  450.   -21.46609
   9200    3.68    -21.50990   0.0396  651.  695.   -21.46757
   9400    3.76    -21.50974   0.0361  650.  633.   -21.47037
   9600    3.84    -21.50962   0.0263  648.  461.   -21.47374
   9800    3.92    -21.50945   0.0254  644.  446.   -21.47537
  10000    4.00    -21.50938   0.0312  642.  547.   -21.47722
block <Epot> / <T> :     -21.50104  614.     drift:  0.99D+02   Tbath : 300.
  10200    4.08    -21.50867   0.0301  639.  528.   -21.43389
  10400    4.16    -21.50798   0.0435  640.  764.   -21.43658
  10600    4.24    -21.50733   0.0458  639.  804.   -21.43942
  10800    4.32    -21.50682   0.0339  640.  595.   -21.44281
  11000    4.40    -21.50639   0.0306  641.  536.   -21.44736
  11200    4.48    -21.50603   0.0283  641.  496.   -21.44915
  11400    4.56    -21.50573   0.0272  641.  478.   -21.45324
  11600    4.64    -21.50549   0.0333  641.  584.   -21.45537
  11800    4.72    -21.50529   0.0284  641.  498.   -21.45996
  12000    4.80    -21.50503   0.0310  639.  544.   -21.46278
  12200    4.88    -21.50483   0.0221  637.  387.   -21.46366
  12400    4.96    -21.50461   0.0295  635.  517.   -21.46551
  12600    5.04    -21.50433   0.0348  634.  610.   -21.42628
  12800    5.12    -21.50371   0.0404  635.  709.   -21.42614
  13000    5.20    -21.50299   0.0226  633.  396.   -21.42706
  13200    5.28    -21.50225   0.0282  631.  495.   -21.42982
  13400    5.36    -21.50174   0.0319  631.  560.   -21.43317
  13600    5.44    -21.50121   0.0278  630.  488.   -21.43486
  13800    5.52    -21.50075   0.0263  629.  461.   -21.43759
  14000    5.60    -21.50030   0.0180  628.  315.   -21.43924
  14200    5.68    -21.49985   0.0276  626.  484.   -21.44221
  14400    5.76    -21.49955   0.0310  626.  544.   -21.44350
  14600    5.84    -21.49921   0.0277  624.  485.   -21.44681
  14800    5.92    -21.49887   0.0205  622.  360.   -21.44758
  15000    6.00    -21.49854   0.0306  620.  537.   -21.44962
block <Epot> / <T> :     -21.47684  576.     drift:  0.99D+02   Tbath : 300.
  15200    6.08    -21.49789   0.0420  619.  738.   -21.40630
  15400    6.16    -21.49734   0.0594  622. 1042.   -21.41055
  15600    6.24    -21.49693   0.0621  626. 1089.   -21.41574
  15800    6.32    -21.49650   0.0340  628.  597.   -21.42039
  16000    6.40    -21.49606   0.0472  629.  828.   -21.42390
  16200    6.48    -21.49562   0.0373  628.  654.   -21.42642
  16400    6.56    -21.49538   0.0392  631.  687.   -21.43187
  16600    6.64    -21.49515   0.0449  632.  788.   -21.43583
  16800    6.72    -21.49483   0.0327  631.  574.   -21.43753
  17000    6.80    -21.49455   0.0213  630.  373.   -21.44078
  17200    6.88    -21.49422   0.0277  628.  487.   -21.44199
  17400    6.96    -21.49392   0.0225  626.  395.   -21.44271
  17600    7.04    -21.49345   0.0211  623.  371.   -21.40195
  17800    7.12    -21.49275   0.0498  623.  873.   -21.39901
  18000    7.20    -21.49233   0.0622  626. 1090.   -21.40456
  18200    7.28    -21.49189   0.0303  628.  531.   -21.40907
  18400    7.36    -21.49166   0.0806  632. 1414.   -21.41608
  18600    7.44    -21.49182   0.0887  641. 1555.   -21.42578
  18800    7.52    -21.49199   0.0617  649. 1082.   -21.43709
  19000    7.60    -21.49223   0.0731  655. 1283.   -21.44713
  19200    7.68    -21.49251   0.0546  661.  957.   -21.45441
  19400    7.76    -21.49281   0.0728  666. 1277.   -21.46009
  19600    7.84    -21.49317   0.0613  670. 1075.   -21.46591
  19800    7.92    -21.49353   0.0277  674.  485.   -21.47640
  20000    8.00    -21.49392   0.0443  676.  777.   -21.48199
block <Epot> / <T> :     -21.48010  847.     drift:  0.15D-01   Tbath : 300.
  20200    8.08    -21.49399   0.0381  679.  668.   -21.44168
  20400    8.16    -21.49398   0.0566  681.  993.   -21.44498
  20600    8.24    -21.49406   0.0600  683. 1053.   -21.44925
  20800    8.32    -21.49412   0.0433  685.  759.   -21.45487
  21000    8.40    -21.49422   0.0454  686.  796.   -21.45899
  21200    8.48    -21.49436   0.0453  687.  796.   -21.46546
  21400    8.56    -21.49446   0.0267  687.  468.   -21.46910
  21600    8.64    -21.49456   0.0331  686.  581.   -21.47043
  21800    8.72    -21.49472   0.0421  686.  738.   -21.47302
  22000    8.80    -21.49487   0.0237  686.  415.   -21.47791
  22200    8.88    -21.49502   0.0382  685.  670.   -21.48089
  22400    8.96    -21.49519   0.0235  684.  413.   -21.48336
  22600    9.04    -21.49529   0.0341  683.  599.   -21.44240
  22800    9.12    -21.49511   0.0366  682.  642.   -21.44083
  23000    9.20    -21.49494   0.0181  681.  318.   -21.44331
  23200    9.28    -21.49477   0.0440  680.  772.   -21.44450
  23400    9.36    -21.49461   0.0375  679.  659.   -21.44789
  23600    9.44    -21.49448   0.0267  677.  468.   -21.44975
  23800    9.52    -21.49437   0.0552  676.  968.   -21.45201
  24000    9.60    -21.49445   0.0364  678.  638.   -21.45694
  24200    9.68    -21.49447   0.0483  678.  847.   -21.46059
  24400    9.76    -21.49453   0.0424  678.  743.   -21.46509
  24600    9.84    -21.49461   0.0400  678.  703.   -21.46634
  24800    9.92    -21.49469   0.0254  677.  446.   -21.47207
  25000   10.00    -21.49480   0.0264  677.  463.   -21.47347
block <Epot> / <T> :     -21.49828  679.     drift:  0.50D-03   Tbath : 300.
  25200   10.08    -21.49465   0.0240  676.  422.   -21.43130
  25400   10.16    -21.49441   0.0365  676.  641.   -21.43356
  25600   10.24    -21.49421   0.0354  675.  621.   -21.43761
  25800   10.32    -21.49404   0.0325  674.  571.   -21.43832
  26000   10.40    -21.49386   0.0277  674.  487.   -21.44115
  26200   10.48    -21.49368   0.0240  672.  421.   -21.44262
  26400   10.56    -21.49349   0.0182  670.  319.   -21.44455
  26600   10.64    -21.49331   0.0302  669.  530.   -21.44588
  26800   10.72    -21.49316   0.0169  667.  296.   -21.44582
  27000   10.80    -21.49301   0.0314  666.  552.   -21.44854
  27200   10.88    -21.49286   0.0134  664.  235.   -21.45029
  27400   10.96    -21.49273   0.0263  662.  461.   -21.45144
  27600   11.04    -21.49252   0.0177  660.  311.   -21.40942
  27800   11.12    -21.49204   0.0226  658.  397.   -21.40459
  28000   11.20    -21.49162   0.0364  657.  638.   -21.40531
  28200   11.28    -21.49136   0.0316  658.  555.   -21.40923
  28400   11.36    -21.49107   0.0319  658.  560.   -21.41546
  28600   11.44    -21.49081   0.0524  658.  919.   -21.41661
  28800   11.52    -21.49056   0.0423  658.  742.   -21.42107
  29000   11.60    -21.49034   0.0345  658.  606.   -21.42332
  29200   11.68    -21.49013   0.0276  658.  484.   -21.42625
  29400   11.76    -21.48994   0.0173  658.  303.   -21.42872
  29600   11.84    -21.48976   0.0423  657.  742.   -21.43161
  29800   11.92    -21.48958   0.0262  656.  459.   -21.43323
  30000   12.00    -21.48941   0.0295  655.  517.   -21.43628
block <Epot> / <T> :     -21.46244  546.     drift:  0.25D-02   Tbath : 300.
  30200   12.08    -21.48904   0.0282  654.  495.   -21.39052
  30400   12.16    -21.48860   0.0293  654.  514.   -21.39328
  30600   12.24    -21.48818   0.0226  653.  397.   -21.39508
  30800   12.32    -21.48775   0.0199  651.  349.   -21.39609
  31000   12.40    -21.48735   0.0231  650.  406.   -21.39755
  31200   12.48    -21.48694   0.0209  649.  367.   -21.40023
  31400   12.56    -21.48655   0.0236  648.  414.   -21.40082
  31600   12.64    -21.48617   0.0229  646.  401.   -21.40245
  31800   12.72    -21.48580   0.0201  645.  352.   -21.40396
  32000   12.80    -21.48543   0.0276  644.  483.   -21.40437
  32200   12.88    -21.48507   0.0130  642.  227.   -21.40617
  32400   12.96    -21.48472   0.0203  641.  356.   -21.40598
  32600   13.04    -21.48432   0.0219  639.  385.   -21.36441
  32800   13.12    -21.48369   0.0121  637.  212.   -21.36056
  33000   13.20    -21.48307   0.0307  636.  538.   -21.36084
  33200   13.28    -21.48251   0.0387  635.  679.   -21.36189
  33400   13.36    -21.48204   0.0464  635.  813.   -21.36611
  33600   13.44    -21.48157   0.0228  635.  400.   -21.36934
  33800   13.52    -21.48111   0.0351  635.  615.   -21.37141
  34000   13.60    -21.48067   0.0328  635.  575.   -21.37578
  34200   13.68    -21.48024   0.0282  634.  494.   -21.37646
  34400   13.76    -21.47983   0.0296  634.  520.   -21.37794
  34600   13.84    -21.47944   0.0304  633.  533.   -21.38196
  34800   13.92    -21.47903   0.0263  632.  461.   -21.38157
  35000   14.00    -21.47862   0.0292  631.  511.   -21.38374
block <Epot> / <T> :     -21.41384  489.     drift:  0.23D-01   Tbath : 300.
  35200   14.08    -21.47809   0.0265  631.  466.   -21.34037
  35400   14.16    -21.47747   0.0326  630.  572.   -21.34109
  35600   14.24    -21.47689   0.0266  630.  467.   -21.34376
  35800   14.32    -21.47628   0.0219  628.  384.   -21.34492
  36000   14.40    -21.47572   0.0208  628.  365.   -21.34711
  36200   14.48    -21.47514   0.0272  627.  477.   -21.34868
  36400   14.56    -21.47459   0.0160  626.  281.   -21.35000
  36600   14.64    -21.47405   0.0294  625.  516.   -21.35054
  36800   14.72    -21.47352   0.0281  624.  494.   -21.35166
  37000   14.80    -21.47300   0.0197  623.  346.   -21.35214
  37200   14.88    -21.47248   0.0220  621.  386.   -21.35399
  37400   14.96    -21.47197   0.0267  620.  468.   -21.35533
  37600   15.04    -21.47141   0.0201  619.  352.   -21.31489
  37800   15.12    -21.47070   0.0299  618.  524.   -21.30840
  38000   15.20    -21.47003   0.0427  618.  749.   -21.31204
  38200   15.28    -21.46946   0.0478  619.  839.   -21.31613
  38400   15.36    -21.46885   0.0284  619.  498.   -21.31844
  38600   15.44    -21.46823   0.0406  618.  712.   -21.32035
  38800   15.52    -21.46768   0.0225  619.  395.   -21.32525
  39000   15.60    -21.46714   0.0368  619.  645.   -21.32785
  39200   15.68    -21.46661   0.0295  619.  517.   -21.32935
  39400   15.76    -21.46608   0.0375  618.  657.   -21.33301
  39600   15.84    -21.46558   0.0250  618.  438.   -21.33498
  39800   15.92    -21.46507   0.0289  617.  507.   -21.33709
  40000   16.00    -21.46456   0.0244  617.  429.   -21.33866
block <Epot> / <T> :     -21.36608  513.     drift:  0.45D-01   Tbath : 300.
  40200   16.08    -21.46393   0.0222  616.  389.   -21.29448
  40400   16.16    -21.46324   0.0216  615.  380.   -21.29556
  40600   16.24    -21.46254   0.0184  615.  323.   -21.29755
  40800   16.32    -21.46187   0.0275  614.  482.   -21.29955
  41000   16.40    -21.46120   0.0255  613.  447.   -21.30112
  41200   16.48    -21.46055   0.0245  612.  430.   -21.30133
  41400   16.56    -21.45989   0.0219  611.  385.   -21.30271
  41600   16.64    -21.45926   0.0215  610.  377.   -21.30412
  41800   16.72    -21.45863   0.0189  609.  331.   -21.30474
  42000   16.80    -21.45801   0.0190  608.  333.   -21.30650
  42200   16.88    -21.45740   0.0176  607.  309.   -21.30723
  42400   16.96    -21.45678   0.0216  606.  378.   -21.30868
  42600   17.04    -21.45614   0.0280  605.  491.   -21.26656
  42800   17.12    -21.45536   0.0365  604.  640.   -21.26126
  43000   17.20    -21.45467   0.0557  605.  977.   -21.26483
  43200   17.28    -21.45400   0.0343  606.  601.   -21.27098
  43400   17.36    -21.45334   0.0327  606.  574.   -21.27312
  43600   17.44    -21.45268   0.0510  606.  895.   -21.27417
  43800   17.52    -21.45203   0.0279  606.  490.   -21.27922
  44000   17.60    -21.45139   0.0359  606.  630.   -21.28092
  44200   17.68    -21.45076   0.0324  606.  568.   -21.28316
  44400   17.76    -21.45015   0.0327  605.  573.   -21.28438
  44600   17.84    -21.44954   0.0379  605.  665.   -21.28761
  44800   17.92    -21.44895   0.0255  604.  447.   -21.28988
  45000   18.00    -21.44836   0.0210  604.  368.   -21.29000
block <Epot> / <T> :     -21.31863  500.     drift:  0.48D-01   Tbath : 300.
  45200   18.08    -21.44764   0.0277  603.  487.   -21.24540
  45400   18.16    -21.44687   0.0296  602.  519.   -21.24511
  45600   18.24    -21.44614   0.0272  602.  478.   -21.24918
  45800   18.32    -21.44541   0.0315  602.  553.   -21.25044
  46000   18.40    -21.44469   0.0248  602.  435.   -21.25258
  46200   18.48    -21.44398   0.0296  601.  519.   -21.25421
  46400   18.56    -21.44328   0.0286  601.  501.   -21.25500
  46600   18.64    -21.44260   0.0253  600.  444.   -21.25662
  46800   18.72    -21.44194   0.0242  600.  424.   -21.25968
  47000   18.80    -21.44127   0.0144  599.  252.   -21.26066
  47200   18.88    -21.44060   0.0143  598.  252.   -21.26168
  47400   18.96    -21.43995   0.0203  597.  356.   -21.26190
  47600   19.04    -21.43925   0.0233  596.  409.   -21.22184
  47800   19.12    -21.43844   0.0361  596.  633.   -21.21695
  48000   19.20    -21.43765   0.0201  596.  353.   -21.21868
  48200   19.28    -21.43687   0.0248  596.  436.   -21.22053
  48400   19.36    -21.43611   0.0373  595.  654.   -21.22251
  48600   19.44    -21.43535   0.0314  595.  551.   -21.22414
  48800   19.52    -21.43461   0.0261  594.  457.   -21.22694
  49000   19.60    -21.43387   0.0339  594.  594.   -21.22786
  49200   19.68    -21.43315   0.0199  593.  348.   -21.22918
  49400   19.76    -21.43243   0.0289  593.  507.   -21.23156
  49600   19.84    -21.43172   0.0268  592.  470.   -21.23295
  49800   19.92    -21.43100   0.0208  591.  365.   -21.23362
  50000   20.00    -21.43031   0.0232  591.  408.   -21.23270
block <Epot> / <T> :     -21.26774  473.     drift:  0.49D-01   Tbath : 300.
  50200   20.08    -21.42950   0.0250  590.  438.   -21.18706
  50400   20.16    -21.42863   0.0309  589.  541.   -21.18786
  50600   20.24    -21.42779   0.0373  589.  654.   -21.19015
  50800   20.32    -21.42703   0.0499  589.  875.   -21.19284
  51000   20.40    -21.42633   0.0705  591. 1236.   -21.20131
  51200   20.48    -21.42611   0.1534  599. 2690.   -21.22287
  51400   20.56    -21.42616   0.1845  611. 3237.   -21.25045
  51600   20.64    -21.42624   0.1943  621. 3408.   -21.27778
  51800   20.72    -21.42637   0.1914  629. 3357.   -21.30072
  52000   20.80    -21.42655   0.1496  638. 2624.   -21.32363
  52200   20.88    -21.42672   0.1682  644. 2951.   -21.34979
  52400   20.96    -21.42704   0.1443  652. 2532.   -21.37068
  52600   21.04    -21.42734   0.1629  658. 2857.   -21.35102
  52800   21.12    -21.42761   0.1167  665. 2047.   -21.37502
  53000   21.20    -21.42790   0.0988  671. 1733.   -21.38951
  53200   21.28    -21.42821   0.0923  675. 1619.   -21.40939
  53400   21.36    -21.42849   0.0813  679. 1426.   -21.42173
  53600   21.44    -21.42880   0.0911  682. 1597.   -21.42958
  53800   21.52    -21.42915   0.0703  685. 1233.   -21.44391
  54000   21.60    -21.42949   0.0453  687.  795.   -21.45405
  54200   21.68    -21.42986   0.0712  689. 1250.   -21.46512
  54400   21.76    -21.43028   0.0636  691. 1116.   -21.47094
  54600   21.84    -21.43069   0.0518  693.  908.   -21.48318
  54800   21.92    -21.43114   0.0742  695. 1302.   -21.49000
  55000   22.00    -21.43156   0.0424  696.  744.   -21.49512
block <Epot> / <T> :     -21.44469 1747.     drift: -0.18D-01   Tbath : 300.
  55200   22.08    -21.43189   0.0460  696.  808.   -21.45643
  55400   22.16    -21.43226   0.0630  698. 1105.   -21.46555
  55600   22.24    -21.43265   0.0641  700. 1125.   -21.47452
  55800   22.32    -21.43303   0.0448  702.  786.   -21.48295
  56000   22.40    -21.43339   0.0396  702.  695.   -21.48803
  56200   22.48    -21.43378   0.0564  703.  989.   -21.49517
  56400   22.56    -21.43419   0.0416  704.  730.   -21.50085
  56600   22.64    -21.43462   0.0502  704.  882.   -21.50678
  56800   22.72    -21.43505   0.0463  705.  812.   -21.50998
  57000   22.80    -21.43544   0.0229  705.  403.   -21.51453
  57200   22.88    -21.43586   0.0507  704.  889.   -21.51748
  57400   22.96    -21.43630   0.0315  704.  552.   -21.52146
  57600   23.04    -21.43671   0.0445  704.  781.   -21.48766
  57800   23.12    -21.43704   0.0291  705.  511.   -21.48741
  58000   23.20    -21.43741   0.0385  706.  675.   -21.49405
  58200   23.28    -21.43781   0.0533  707.  935.   -21.50085
  58400   23.36    -21.43820   0.0535  707.  938.   -21.50510
  58600   23.44    -21.43863   0.0455  708.  799.   -21.51166
  58800   23.52    -21.43907   0.0432  709.  757.   -21.51913
  59000   23.60    -21.43953   0.0573  709. 1005.   -21.52546
  59200   23.68    -21.43998   0.0367  710.  644.   -21.52961
  59400   23.76    -21.44041   0.0411  709.  721.   -21.53338
  59600   23.84    -21.44083   0.0243  709.  426.   -21.53617
  59800   23.92    -21.44127   0.0433  708.  760.   -21.53948
  60000   24.00    -21.44173   0.0301  708.  528.   -21.54302
block <Epot> / <T> :     -21.55361  848.     drift: -0.88D-01   Tbath : 300.
  60200   24.08    -21.44211   0.0515  708.  904.   -21.49965
  60400   24.16    -21.44247   0.0395  709.  692.   -21.50888
  60600   24.24    -21.44280   0.0285  708.  501.   -21.51082
  60800   24.32    -21.44315   0.0537  708.  942.   -21.51236
  61000   24.40    -21.44355   0.0536  709.  940.   -21.51772
  61200   24.48    -21.44392   0.0273  709.  479.   -21.52177
  61400   24.56    -21.44428   0.0403  708.  707.   -21.52574
  61600   24.64    -21.44465   0.0239  708.  419.   -21.52560
  61800   24.72    -21.44501   0.0379  707.  664.   -21.53087
  62000   24.80    -21.44539   0.0274  706.  481.   -21.53077
  62200   24.88    -21.44576   0.0421  706.  738.   -21.53425
  62400   24.96    -21.44615   0.0194  705.  340.   -21.53636
  62600   25.04    -21.44648   0.0279  704.  490.   -21.49844
  62800   25.12    -21.44677   0.0486  704.  852.   -21.49485
  63000   25.20    -21.44705   0.0445  704.  781.   -21.49915
  63200   25.28    -21.44737   0.0436  705.  765.   -21.50446
  63400   25.36    -21.44772   0.0508  705.  891.   -21.51128
  63600   25.44    -21.44807   0.0446  706.  782.   -21.51616
  63800   25.52    -21.44842   0.0469  706.  823.   -21.51961
  64000   25.60    -21.44877   0.0476  706.  836.   -21.52373
  64200   25.68    -21.44915   0.0485  706.  851.   -21.52862
  64400   25.76    -21.44950   0.0237  705.  416.   -21.53256
  64600   25.84    -21.44985   0.0350  705.  614.   -21.53438
  64800   25.92    -21.45024   0.0541  705.  949.   -21.53770
  65000   26.00    -21.45065   0.0439  705.  771.   -21.54370
block <Epot> / <T> :     -21.55774  663.     drift: -0.98D-01   Tbath : 300.
  65200   26.08    -21.45097   0.0367  705.  644.   -21.50146
  65400   26.16    -21.45126   0.0582  705. 1020.   -21.50630
  65600   26.24    -21.45157   0.0491  705.  862.   -21.51112
  65800   26.32    -21.45190   0.0384  705.  674.   -21.51638
  66000   26.40    -21.45222   0.0306  705.  537.   -21.52057
  66200   26.48    -21.45254   0.0278  705.  488.   -21.52260
  66400   26.56    -21.45284   0.0336  705.  589.   -21.52547
  66600   26.64    -21.45316   0.0455  704.  798.   -21.52899
  66800   26.72    -21.45351   0.0443  704.  777.   -21.53188
  67000   26.80    -21.45383   0.0236  703.  414.   -21.53325
  67200   26.88    -21.45413   0.0319  702.  560.   -21.53559
  67400   26.96    -21.45448   0.0189  702.  331.   -21.53742
  67600   27.04    -21.45477   0.0163  701.  285.   -21.50102
  67800   27.12    -21.45496   0.0326  701.  571.   -21.49293
  68000   27.20    -21.45523   0.0591  701. 1037.   -21.49817
  68200   27.28    -21.45549   0.0318  701.  558.   -21.50412
  68400   27.36    -21.45576   0.0530  701.  930.   -21.50862
  68600   27.44    -21.45608   0.0637  702. 1118.   -21.51555
  68800   27.52    -21.45641   0.0350  703.  614.   -21.52039
  69000   27.60    -21.45667   0.0165  702.  290.   -21.52146
  69200   27.68    -21.45695   0.0266  701.  467.   -21.52347
  69400   27.76    -21.45724   0.0362  701.  636.   -21.52697
  69600   27.84    -21.45755   0.0258  701.  453.   -21.52949
  69800   27.92    -21.45786   0.0423  700.  743.   -21.53267
  70000   28.00    -21.45815   0.0276  700.  483.   -21.53426
block <Epot> / <T> :     -21.55560  634.     drift: -0.34D-01   Tbath : 300.
  70200   28.08    -21.45836   0.0154  699.  271.   -21.48928
  70400   28.16    -21.45856   0.0536  699.  941.   -21.49249
  70600   28.24    -21.45884   0.0516  700.  906.   -21.49824
  70800   28.32    -21.45907   0.0341  700.  599.   -21.50480
  71000   28.40    -21.45930   0.0387  700.  678.   -21.50462
  71200   28.48    -21.45955   0.0446  700.  782.   -21.51205
  71400   28.56    -21.45983   0.0483  700.  847.   -21.51725
  71600   28.64    -21.46009   0.0233  700.  409.   -21.51910
  71800   28.72    -21.46032   0.0283  699.  497.   -21.51991
  72000   28.80    -21.46055   0.0237  698.  415.   -21.52131
  72200   28.88    -21.46080   0.0370  698.  649.   -21.52393
  72400   28.96    -21.46106   0.0261  697.  457.   -21.52637
  72600   29.04    -21.46130   0.0199  697.  349.   -21.48969
  72800   29.12    -21.46144   0.0445  696.  781.   -21.48262
  73000   29.20    -21.46165   0.0653  697. 1146.   -21.48904
  73200   29.28    -21.46191   0.0533  698.  935.   -21.49593
  73400   29.36    -21.46212   0.0318  698.  558.   -21.49985
  73600   29.44    -21.46234   0.0501  698.  880.   -21.50455
  73800   29.52    -21.46259   0.0393  698.  689.   -21.50907
  74000   29.60    -21.46282   0.0406  698.  712.   -21.51359
  74200   29.68    -21.46305   0.0280  698.  492.   -21.51650
  74400   29.76    -21.46326   0.0128  697.  225.   -21.51753
  74600   29.84    -21.46348   0.0209  697.  367.   -21.51878
  74800   29.92    -21.46372   0.0363  696.  637.   -21.52337
  75000   30.00    -21.46398   0.0209  696.  367.   -21.52557
block <Epot> / <T> :     -21.54552  642.     drift:  0.26D-02   Tbath : 300.
  75200   30.08    -21.46415   0.0389  696.  683.   -21.48205
  75400   30.16    -21.46431   0.0263  696.  461.   -21.48302
  75600   30.24    -21.46446   0.0457  695.  802.   -21.48848
  75800   30.32    -21.46463   0.0422  695.  740.   -21.49322
  76000   30.40    -21.46482   0.0367  695.  643.   -21.49904
  76200   30.48    -21.46502   0.0358  696.  628.   -21.49920
  76400   30.56    -21.46523   0.0504  696.  885.   -21.50282
  76600   30.64    -21.46542   0.0277  695.  486.   -21.50929
  76800   30.72    -21.46562   0.0290  695.  510.   -21.51027
  77000   30.80    -21.46582   0.0273  695.  478.   -21.51471
  77200   30.88    -21.46601   0.0346  694.  606.   -21.51329
  77400   30.96    -21.46623   0.0291  694.  511.   -21.51596
  77600   31.04    -21.46642   0.0279  693.  489.   -21.48331
  77800   31.12    -21.46654   0.0455  693.  798.   -21.47741
  78000   31.20    -21.46668   0.0492  693.  864.   -21.48286
  78200   31.28    -21.46683   0.0367  693.  643.   -21.48495
  78400   31.36    -21.46697   0.0350  693.  613.   -21.48875
  78600   31.44    -21.46710   0.0326  692.  572.   -21.49142
  78800   31.52    -21.46725   0.0351  692.  615.   -21.49303
  79000   31.60    -21.46740   0.0331  692.  581.   -21.49584
  79200   31.68    -21.46756   0.0336  692.  589.   -21.50026
  79400   31.76    -21.46771   0.0257  691.  451.   -21.50207
  79600   31.84    -21.46785   0.0234  690.  410.   -21.50219
  79800   31.92    -21.46800   0.0338  690.  593.   -21.50245
  80000   32.00    -21.46816   0.0237  689.  415.   -21.50572
block <Epot> / <T> :     -21.53091  590.     drift:  0.91D-02   Tbath : 300.
  80200   32.08    -21.46826   0.0383  689.  673.   -21.46290
  80400   32.16    -21.46836   0.0401  689.  704.   -21.46669
  80600   32.24    -21.46847   0.0531  689.  932.   -21.47035
  80800   32.32    -21.46860   0.0346  690.  606.   -21.47638
  81000   32.40    -21.46874   0.0489  690.  857.   -21.48027
  81200   32.48    -21.46886   0.0214  690.  376.   -21.48539
  81400   32.56    -21.46897   0.0319  689.  559.   -21.48665
  81600   32.64    -21.46911   0.0436  689.  765.   -21.49171
  81800   32.72    -21.46927   0.0409  689.  718.   -21.49601
  82000   32.80    -21.46943   0.0375  689.  657.   -21.49784
  82200   32.88    -21.46958   0.0191  689.  336.   -21.50156
  82400   32.96    -21.46973   0.0421  689.  739.   -21.50395
  82600   33.04    -21.46989   0.0423  689.  743.   -21.47136
  82800   33.12    -21.47001   0.0584  689. 1024.   -21.46761
  83000   33.20    -21.47013   0.0409  689.  718.   -21.47382
  83200   33.28    -21.47024   0.0267  689.  469.   -21.47759
  83400   33.36    -21.47034   0.0277  689.  486.   -21.47977
  83600   33.44    -21.47045   0.0340  689.  596.   -21.48313
  83800   33.52    -21.47057   0.0423  689.  743.   -21.48647
  84000   33.60    -21.47070   0.0349  689.  612.   -21.49004
  84200   33.68    -21.47083   0.0361  689.  633.   -21.49265
  84400   33.76    -21.47096   0.0294  688.  517.   -21.49591
  84600   33.84    -21.47109   0.0408  688.  715.   -21.49614
  84800   33.92    -21.47125   0.0436  688.  766.   -21.50077
  85000   34.00    -21.47140   0.0212  687.  372.   -21.50366
block <Epot> / <T> :     -21.52312  657.     drift:  0.11D-01   Tbath : 300.
  85200   34.08    -21.47147   0.0243  687.  426.   -21.45760
  85400   34.16    -21.47150   0.0375  686.  658.   -21.45977
  85600   34.24    -21.47160   0.0576  687. 1010.   -21.46490
  85800   34.32    -21.47169   0.0307  687.  539.   -21.47001
  86000   34.40    -21.47176   0.0542  687.  951.   -21.47090
  86200   34.48    -21.47187   0.0351  687.  616.   -21.47823
  86400   34.56    -21.47195   0.0278  687.  487.   -21.47790
  86600   34.64    -21.47202   0.0250  686.  438.   -21.47831
  86800   34.72    -21.47212   0.0416  686.  729.   -21.48174
  87000   34.80    -21.47224   0.0295  686.  518.   -21.48778
  87200   34.88    -21.47233   0.0134  685.  236.   -21.48812
  87400   34.96    -21.47241   0.0168  684.  295.   -21.48872
  87600   35.04    -21.47248   0.0284  684.  497.   -21.45346
  87800   35.12    -21.47251   0.0570  684.  999.   -21.44513
  88000   35.20    -21.47255   0.0331  684.  580.   -21.45018
  88200   35.28    -21.47257   0.0230  683.  403.   -21.45133
  88400   35.36    -21.47260   0.0389  683.  683.   -21.45357
  88600   35.44    -21.47266   0.0485  683.  850.   -21.45918
  88800   35.52    -21.47275   0.0385  684.  675.   -21.46623
  89000   35.60    -21.47284   0.0347  684.  608.   -21.47027
  89200   35.68    -21.47295   0.0542  685.  951.   -21.47430
  89400   35.76    -21.47305   0.0376  685.  659.   -21.47935
  89600   35.84    -21.47315   0.0270  684.  473.   -21.48275
  89800   35.92    -21.47324   0.0239  684.  419.   -21.48382
  90000   36.00    -21.47334   0.0397  684.  696.   -21.48817
block <Epot> / <T> :     -21.50642  624.     drift:  0.13D-01   Tbath : 300.
  90200   36.08    -21.47341   0.0331  684.  580.   -21.44713
  90400   36.16    -21.47345   0.0635  684. 1113.   -21.45168
  90600   36.24    -21.47351   0.0374  684.  656.   -21.45742
  90800   36.32    -21.47357   0.0394  684.  691.   -21.46161
  91000   36.40    -21.47362   0.0234  684.  411.   -21.46435
  91200   36.48    -21.47368   0.0406  684.  713.   -21.46844
  91400   36.56    -21.47375   0.0310  684.  544.   -21.47261
  91600   36.64    -21.47381   0.0412  684.  723.   -21.47378
  91800   36.72    -21.47392   0.0429  684.  752.   -21.47863
  92000   36.80    -21.47402   0.0206  684.  362.   -21.48309
  92200   36.88    -21.47411   0.0350  684.  614.   -21.48502
  92400   36.96    -21.47420   0.0191  683.  335.   -21.48732
  92600   37.04    -21.47427   0.0371  683.  651.   -21.45205
  92800   37.12    -21.47429   0.0598  683. 1049.   -21.44656
  93000   37.20    -21.47438   0.0592  684. 1038.   -21.45353
  93200   37.28    -21.47445   0.0498  684.  874.   -21.45958
  93400   37.36    -21.47450   0.0368  684.  646.   -21.46321
  93600   37.44    -21.47456   0.0370  684.  649.   -21.46599
  93800   37.52    -21.47463   0.0330  684.  579.   -21.47001
  94000   37.60    -21.47468   0.0364  684.  639.   -21.47317
  94200   37.68    -21.47476   0.0469  684.  823.   -21.47536
  94400   37.76    -21.47484   0.0362  683.  635.   -21.47982
  94600   37.84    -21.47492   0.0268  683.  469.   -21.48223
  94800   37.92    -21.47499   0.0312  683.  546.   -21.48271
  95000   38.00    -21.47507   0.0275  682.  483.   -21.48468
block <Epot> / <T> :     -21.50609  652.     drift:  0.91D-02   Tbath : 300.
  95200   38.08    -21.47512   0.0582  682. 1020.   -21.44482
  95400   38.16    -21.47516   0.0446  683.  782.   -21.44865
  95600   38.24    -21.47519   0.0314  683.  550.   -21.45258
  95800   38.32    -21.47521   0.0479  682.  840.   -21.45519
  96000   38.40    -21.47525   0.0218  682.  383.   -21.45818
  96200   38.48    -21.47527   0.0267  682.  468.   -21.45914
  96400   38.56    -21.47530   0.0340  681.  596.   -21.46351
  96600   38.64    -21.47532   0.0209  681.  366.   -21.46244
  96800   38.72    -21.47534   0.0215  680.  377.   -21.46423
  97000   38.80    -21.47536   0.0220  680.  386.   -21.46517
  97200   38.88    -21.47538   0.0203  679.  356.   -21.46513
  97400   38.96    -21.47540   0.0128  678.  225.   -21.46604
  97600   39.04    -21.47543   0.0272  678.  477.   -21.43283
  97800   39.12    -21.47540   0.0419  678.  735.   -21.42625
  98000   39.20    -21.47539   0.0379  678.  664.   -21.43046
  98200   39.28    -21.47541   0.0598  678. 1050.   -21.43646
  98400   39.36    -21.47542   0.0481  678.  844.   -21.44097
  98600   39.44    -21.47542   0.0224  678.  393.   -21.44528
  98800   39.52    -21.47542   0.0384  678.  674.   -21.44558
  99000   39.60    -21.47544   0.0380  678.  666.   -21.44908
  99200   39.68    -21.47544   0.0285  677.  501.   -21.45245
  99400   39.76    -21.47546   0.0422  677.  740.   -21.45344
  99600   39.84    -21.47548   0.0303  677.  532.   -21.45707
  99800   39.92    -21.47550   0.0186  676.  327.   -21.45884
 100000   40.00    -21.47552   0.0363  676.  637.   -21.46047
block <Epot> / <T> :     -21.48401  556.     drift:  0.12D-01   Tbath : 300.
 100200   40.08    -21.47551   0.0468  676.  821.   -21.41863
 100400   40.16    -21.47549   0.0396  676.  695.   -21.42225
 100600   40.24    -21.47547   0.0461  676.  808.   -21.42796
 100800   40.32    -21.47545   0.0428  676.  751.   -21.42918
 101000   40.40    -21.47546   0.0543  676.  953.   -21.43590
 101200   40.48    -21.47547   0.0426  676.  747.   -21.44048
 101400   40.56    -21.47547   0.0335  676.  588.   -21.44306
 101600   40.64    -21.47548   0.0450  676.  790.   -21.44624
 101800   40.72    -21.47550   0.0209  676.  367.   -21.44932
 102000   40.80    -21.47552   0.0369  676.  648.   -21.45229
 102200   40.88    -21.47553   0.0277  676.  485.   -21.45519
 102400   40.96    -21.47556   0.0321  676.  564.   -21.45753
 102600   41.04    -21.47556   0.0213  675.  373.   -21.42474
 102800   41.12    -21.47551   0.0295  675.  518.   -21.41535
 103000   41.20    -21.47546   0.0311  675.  546.   -21.42050
 103200   41.28    -21.47541   0.0296  674.  520.   -21.42229
 103400   41.36    -21.47541   0.0489  675.  858.   -21.42746
 103600   41.44    -21.47541   0.0363  675.  637.   -21.43188
 103800   41.52    -21.47541   0.0348  675.  610.   -21.43575
 104000   41.60    -21.47540   0.0302  675.  530.   -21.43860
 104200   41.68    -21.47540   0.0366  675.  643.   -21.44272
 104400   41.76    -21.47540   0.0219  675.  384.   -21.44473
 104600   41.84    -21.47538   0.0367  674.  645.   -21.44568
 104800   41.92    -21.47539   0.0321  674.  563.   -21.44655
 105000   42.00    -21.47540   0.0298  674.  523.   -21.44969
block <Epot> / <T> :     -21.47286  630.     drift:  0.12D-01   Tbath : 300.
 105200   42.08    -21.47535   0.0217  673.  380.   -21.40375
 105400   42.16    -21.47527   0.0471  673.  826.   -21.40562
 105600   42.24    -21.47524   0.0441  673.  773.   -21.41043
 105800   42.32    -21.47520   0.0497  674.  872.   -21.41466
 106000   42.40    -21.47517   0.0497  674.  873.   -21.41810
 106200   42.48    -21.47515   0.0425  674.  746.   -21.42365
 106400   42.56    -21.47514   0.0454  674.  796.   -21.42811
 106600   42.64    -21.47514   0.0409  674.  718.   -21.43257
 106800   42.72    -21.47515   0.0369  674.  647.   -21.43863
 107000   42.80    -21.47514   0.0269  674.  472.   -21.43912
 107200   42.88    -21.47514   0.0391  674.  686.   -21.44263
 107400   42.96    -21.47517   0.0452  674.  792.   -21.44919
 107600   43.04    -21.47518   0.0366  674.  642.   -21.41906
 107800   43.12    -21.47514   0.0642  674. 1127.   -21.41135
 108000   43.20    -21.47511   0.0450  675.  790.   -21.41528
 108200   43.28    -21.47509   0.0504  675.  885.   -21.41884
 108400   43.36    -21.47507   0.0422  675.  740.   -21.42456
 108600   43.44    -21.47505   0.0279  675.  490.   -21.42919
 108800   43.52    -21.47502   0.0324  675.  568.   -21.43077
 109000   43.60    -21.47501   0.0346  675.  606.   -21.43468
 109200   43.68    -21.47499   0.0295  674.  518.   -21.43586
 109400   43.76    -21.47497   0.0258  674.  453.   -21.43769
 109600   43.84    -21.47496   0.0296  674.  519.   -21.44036
 109800   43.92    -21.47494   0.0258  673.  452.   -21.44184
 110000   44.00    -21.47493   0.0308  673.  540.   -21.44372
block <Epot> / <T> :     -21.46517  654.     drift:  0.13D-01   Tbath : 300.
 110200   44.08    -21.47489   0.0319  673.  559.   -21.40049
 110400   44.16    -21.47483   0.0469  673.  823.   -21.40461
 110600   44.24    -21.47480   0.0444  673.  779.   -21.40968
 110800   44.32    -21.47477   0.0370  673.  649.   -21.41367
 111000   44.40    -21.47473   0.0490  673.  859.   -21.41740
 111200   44.48    -21.47470   0.0466  673.  817.   -21.42111
 111400   44.56    -21.47467   0.0400  673.  702.   -21.42381
 111600   44.64    -21.47463   0.0272  673.  477.   -21.42607
 111800   44.72    -21.47459   0.0366  672.  642.   -21.42723
 112000   44.80    -21.47457   0.0357  672.  626.   -21.43023
 112200   44.88    -21.47455   0.0231  672.  406.   -21.43226
 112400   44.96    -21.47453   0.0363  672.  636.   -21.43689
 112600   45.04    -21.47452   0.0298  672.  523.   -21.40633
 112800   45.12    -21.47445   0.0376  672.  660.   -21.39862
 113000   45.20    -21.47437   0.0327  672.  573.   -21.40108
 113200   45.28    -21.47431   0.0354  672.  620.   -21.40484
 113400   45.36    -21.47427   0.0357  672.  626.   -21.40861
 113600   45.44    -21.47423   0.0381  672.  668.   -21.41068
 113800   45.52    -21.47419   0.0322  672.  566.   -21.41564
 114000   45.60    -21.47414   0.0272  671.  477.   -21.41671
 114200   45.68    -21.47410   0.0417  671.  732.   -21.42014
 114400   45.76    -21.47408   0.0442  671.  775.   -21.42492
 114600   45.84    -21.47408   0.0541  672.  949.   -21.42728
 114800   45.92    -21.47408   0.0341  672.  598.   -21.43361
 115000   46.00    -21.47407   0.0254  672.  446.   -21.43681
block <Epot> / <T> :     -21.45517  647.     drift:  0.94D-02   Tbath : 300.
 115200   46.08    -21.47403   0.0463  672.  813.   -21.39527
 115400   46.16    -21.47399   0.0496  672.  870.   -21.39978
 115600   46.24    -21.47394   0.0369  672.  647.   -21.40545
 115800   46.32    -21.47390   0.0195  672.  342.   -21.40857
 116000   46.40    -21.47384   0.0360  672.  631.   -21.41058
 116200   46.48    -21.47380   0.0403  672.  707.   -21.41504
 116400   46.56    -21.47378   0.0454  672.  797.   -21.41972
 116600   46.64    -21.47374   0.0303  672.  532.   -21.42185
 116800   46.72    -21.47370   0.0234  672.  410.   -21.42413
 117000   46.80    -21.47366   0.0271  671.  475.   -21.42510
 117200   46.88    -21.47365   0.0342  671.  600.   -21.43029
 117400   46.96    -21.47365   0.0330  671.  578.   -21.43460
 117600   47.04    -21.47363   0.0251  671.  440.   -21.40470
 117800   47.12    -21.47357   0.0477  671.  837.   -21.39491
 118000   47.20    -21.47352   0.0502  672.  881.   -21.39973
 118200   47.28    -21.47346   0.0484  672.  849.   -21.40322
 118400   47.36    -21.47341   0.0383  672.  672.   -21.40658
 118600   47.44    -21.47336   0.0328  672.  575.   -21.40950
 118800   47.52    -21.47331   0.0249  671.  437.   -21.41192
 119000   47.60    -21.47326   0.0290  671.  508.   -21.41515
 119200   47.68    -21.47322   0.0437  671.  767.   -21.41616
 119400   47.76    -21.47318   0.0244  671.  428.   -21.41964
 119600   47.84    -21.47313   0.0251  670.  440.   -21.42118
 119800   47.92    -21.47310   0.0302  670.  529.   -21.42305
 120000   48.00    -21.47305   0.0232  670.  407.   -21.42355
block <Epot> / <T> :     -21.44947  624.     drift:  0.80D-02   Tbath : 300.
 120200   48.08    -21.47298   0.0311  669.  545.   -21.38106
 120400   48.16    -21.47289   0.0401  669.  704.   -21.38455
 120600   48.24    -21.47281   0.0278  669.  488.   -21.38674
 120800   48.32    -21.47274   0.0491  670.  862.   -21.39076
 121000   48.40    -21.47268   0.0411  670.  721.   -21.39577
 121200   48.48    -21.47264   0.0370  670.  649.   -21.39999
 121400   48.56    -21.47258   0.0400  670.  701.   -21.40458
 121600   48.64    -21.47253   0.0212  670.  372.   -21.40624
 121800   48.72    -21.47247   0.0313  670.  549.   -21.40893
 122000   48.80    -21.47243   0.0337  670.  591.   -21.41276
 122200   48.88    -21.47239   0.0360  669.  632.   -21.41434
 122400   48.96    -21.47235   0.0227  669.  398.   -21.41803
 122600   49.04    -21.47231   0.0369  669.  648.   -21.38966
 122800   49.12    -21.47222   0.0498  669.  874.   -21.37797
 123000   49.20    -21.47215   0.0417  669.  732.   -21.38408
 123200   49.28    -21.47207   0.0353  669.  620.   -21.38675
 123400   49.36    -21.47199   0.0359  669.  629.   -21.38958
 123600   49.44    -21.47192   0.0379  669.  665.   -21.39321
 123800   49.52    -21.47185   0.0426  669.  748.   -21.39529
 124000   49.60    -21.47178   0.0411  669.  721.   -21.39719
 124200   49.68    -21.47172   0.0315  669.  552.   -21.40048
 124400   49.76    -21.47164   0.0311  668.  545.   -21.40145
 124600   49.84    -21.47158   0.0389  668.  683.   -21.40387
 124800   49.92    -21.47152   0.0157  668.  276.   -21.40673
 average properties 
 Epot               :  -21.4714707984856     
 Epot (accurate SCC):  -21.4716349319471     
 Ekin               :  3.806922228776932E-002
 Etot               :  -21.4334015761978     
 T                  :   667.851163500569     
 thermostating problem
 normal exit of md()

------------------------------------------------------------------------
 * finished run on 2021/03/15 at 00:21:50.150     
------------------------------------------------------------------------
 total:
 * wall-time:     0 d,  0 h, 24 min, 41.248 sec
 *  cpu-time:     0 d,  0 h, 24 min, 20.928 sec
 * ratio c/w:     0.986 speedup
 SCF:
 * wall-time:     0 d,  0 h,  0 min,  0.902 sec
 *  cpu-time:     0 d,  0 h,  0 min,  0.036 sec
 * ratio c/w:     0.040 speedup
 MD:
 * wall-time:     0 d,  0 h, 24 min, 39.324 sec
 *  cpu-time:     0 d,  0 h, 24 min, 20.852 sec
 * ratio c/w:     0.988 speedup

