      -----------------------------------------------------------      
     |                   =====================                   |     
     |                           x T B                           |     
     |                   =====================                   |     
     |                         S. Grimme                         |     
     |          Mulliken Center for Theoretical Chemistry        |     
     |                    University of Bonn                     |     
     |                 Version 6.1.4 (SAW190525)                 |     
      -----------------------------------------------------------      

   This program is distributed in the hope that it will be useful,
   but WITHOUT ANY WARRANTY; without even the implied warranty of
   MERCHANTABILITY or FITNESS FOR A PARTICULAR PURPOSE.
   
   FOR NON-COMMERCIAL, ACADEMIA USE ONLY.
   
   Cite this work as:
   S. Grimme, C. Bannwarth, P. Shushkov, J. Comput. Theory Chem., 2017,
   13, 1989-2009. DOI: 10.1021/acs.jctc.7b00118
   C. Bannwarth, S. Ehlert and S. Grimme., J. Comput. Theory Chem., 2019,
   just accepted. DOI: 10.1021/acs.jctc.8b01176
   
   for sTDA-xTB:
   S. Grimme and C. Bannwarth, J. Chem. Phys., 2016, 145, 054103.
   DOI: 10.1063/1.4959605
   
   in the mass-spec context:
   V. Asgeirsson, C. Bauer and S. Grimme, Chem. Sci., 2017, 8, 4879.
   DOI: 10.1039/c7sc00601b
   
   for metadynamics refer to:
   S. Grimme, J. Chem. Theory Comput. Article ASAP, 2019,
   DOI: 10.1021/acs.jctc.9b00143
   
   with help from (in alphabetical order)
   C. Bannwarth, F. Bohle, G. Brandenburg, E. Caldeweyher, M. Checinski,
   S. Dohm, S. Ehlert, S. Ehrlich, F. März, H. Neugebauer, J. Pisarek,
   P. Pracht, P. Shushkov, and S. Spicher.
   
 * started run on 2021/03/14 at 23:57:08.907     

           -------------------------------------------------
          |                Calculation Setup                |
           -------------------------------------------------

          program call               : /opt/xtb/6.1/xtb-190527/bin/xtb 0.8_md.xyz --md --input metadyn.inp --gfn 2
          hostname                   : mnode007
          coordinate file            : 0.8_md.xyz
          omp threads                :                     1
          number of atoms            :                    12
          number of electrons        :                    36
          charge                     :                     0
          spin                       :                   0.0
          first test random number   :      0.84465289898007

spherical wallpotenial with radius    3.6488561 Å

########################################################################
# WARNING! Please study the warnings concerning your input carefully
#  - XTBPATH is not set, using XTBHOME instead
########################################################################

           ------------------------------------------------- 
          |                 G F N 2 - x T B                 |
          | Geometry, Frequencies, Noncovalent interactions |
          |            JCTC 2018 parametrisation            |
           ------------------------------------------------- 
             k(s)              :                1.8500
             k(p)              :                2.2300
             k(d)              :                2.2300
             k(f)              :                2.0000
             kEN (H0ij)        :               -2.0000
             D4 a1             :                0.5200
             D4 a2             :                5.0000
             D4 s6             :                1.0000
             D4 s8             :                2.7000
             D4 s9             :                5.0000
             alphaj            :                2.0000

  Z AO/shell   Hii/eV     exponent
  1     Wed Apr 25 08:07:45 CEST 2018   EN: 2.200 GM2: 0.406  GM3: 0.0800  RAES: 1.40
     1s    -10.707211    1.230000
  6     Wed Apr 25 08:07:45 CEST 2018   EN: 2.550 GM2: 0.538  GM3: 0.1500  RAES: 3.00
     2s    -13.970922    2.096432
     2p    -10.063292    1.800000
  8     Wed Apr 25 08:07:45 CEST 2018   EN: 3.440 GM2: 0.452  GM3:-0.0517  RAES: 1.80
     2s    -20.229985    2.439742
     2p    -15.503117    2.137023


            Z     q(EN)     CN     RAES       Cart. coordinates
     1  C   4.0    0.08    2.99    3.02     1.70115     3.61696     0.19176
     2  O   6.0   -0.34    1.00    1.80     2.76313     4.75510     1.91162
     3  C   4.0   -0.10    3.98    3.58    -0.18770     1.53135     0.59324
     4  H   1.0    0.14    0.99    1.43     1.97669     4.44918    -1.70038
     5  C   4.0   -0.05    3.97    3.58     0.30679    -0.98032    -0.69709
     6  H   1.0    0.11    0.99    1.43    -2.08854     1.91092    -0.12730
     7  H   1.0    0.16    0.99    1.43    -0.44973     0.90749     2.54819
     8  O   6.0   -0.18    1.91    1.82     2.23118    -2.52459     0.39285
     9  H   1.0    0.13    0.99    1.43     1.35130    -0.57309    -2.43866
    10  H   1.0    0.12    0.99    1.43    -1.37234    -2.17656    -0.88601
    11  O   6.0   -0.33    1.92    1.82     1.34757    -3.59150     2.76784
    12  H   1.0    0.26    0.99    1.43     0.03035    -4.78196     2.27725

           ------------------------------------------------- 
          |        Self-Consistent Charge Iterations        |
           ------------------------------------------------- 

          ...................................................
          :                      SETUP                      :
          :.................................................:
          :  # basis functions                  30          :
          :  # atomic orbitals                  30          :
          :  # shells                           18          :
          :  # electrons                        36          :
          :  max. iterations                   250          :
          :  Hamiltonian                  GFN2-xTB          :
          :  restarted?                      false          :
          :  GBSA solvation                  false          :
          :  PC potential                    false          :
          :  electronic temp.         6000.0000000     K    :
          :  accuracy                    1.0000000          :
          :  -> integral cutoff          0.2500000E+02      :
          :  -> integral neglect         0.1000000E-07      :
          :  -> SCF convergence          0.1000000E-05 Eh   :
          :  -> wf. convergence          0.1000000E-03 e    :
          :  Broyden damping             0.4000000          :
          ...................................................

 iter      E             dE          RMSdq      gap      omega  full diag
   1    -21.6702265 -0.216702E+02  0.496E+00    4.29       0.0  T
   2    -21.7023194 -0.320929E-01  0.253E+00    3.37       1.0  T
   3    -21.7027552 -0.435805E-03  0.173E+00    3.94       1.0  T
   4    -21.7113735 -0.861828E-02  0.178E-01    3.58       1.0  T
   5    -21.7115502 -0.176679E-03  0.867E-02    3.62       1.0  T
   6    -21.7115572 -0.707884E-05  0.300E-02    3.62       1.0  T
   7    -21.7115585 -0.122356E-05  0.963E-03    3.62       3.0  T
   8    -21.7115588 -0.327393E-06  0.436E-03    3.62       6.6  T
   9    -21.7115588 -0.383045E-07  0.168E-03    3.62      17.2  T
  10    -21.7115588 -0.146807E-07  0.903E-04    3.62      32.0  T
  11    -21.7115588 -0.512560E-08  0.380E-04    3.62      75.9  T

   *** convergence criteria satisfied after 11 iterations ***

         #    Occupation            Energy/Eh            Energy/eV
      -------------------------------------------------------------
         1        2.0000           -0.7361143             -20.0307
       ...           ...                  ...                  ...
        12        1.9999           -0.5382571             -14.6467
        13        1.9997           -0.5152401             -14.0204
        14        1.9991           -0.4930477             -13.4165
        15        1.9988           -0.4872801             -13.2596
        16        1.9975           -0.4722624             -12.8509
        17        1.9894           -0.4449769             -12.1084
        18        1.9486           -0.4146387             -11.2829 (HOMO)
        19        0.0665           -0.2815404              -7.6611 (LUMO)
        20        0.0004           -0.1850042              -5.0342
        21                         -0.0024067              -0.0655
        22                          0.0375441               1.0216
        23                          0.0666165               1.8127
       ...                                ...                  ...
        30                          0.5137196              13.9790
      -------------------------------------------------------------
                  HL-Gap            0.1330983 Eh            3.6218 eV
             Fermi-level           -0.3455576 Eh           -9.4031 eV

 SCC (total)                   0 d,  0 h,  0 min,  0.731 sec
 SCC setup                      ...        0 min,  0.001 sec (  0.069%)
 Dispersion                     ...        0 min,  0.000 sec (  0.020%)
 integral evaluation            ...        0 min,  0.005 sec (  0.749%)
 zeroth order Hamiltonian       ...        0 min,  0.365 sec ( 49.983%)
 iterations                     ...        0 min,  0.014 sec (  1.904%)
 molecular gradient             ...        0 min,  0.005 sec (  0.741%)
 printout                       ...        0 min,  0.340 sec ( 46.527%)

         :::::::::::::::::::::::::::::::::::::::::::::::::::::
         ::                     SUMMARY                     ::
         :::::::::::::::::::::::::::::::::::::::::::::::::::::
         :: total energy              -21.548143286976 Eh   ::
         :: gradient norm               0.093719956061 Eh/α ::
         :: HOMO-LUMO gap               3.621789070107 eV   ::
         ::.................................................::
         :: SCC energy                -21.711558840014 Eh   ::
         :: -> isotropic ES             0.050736561677 Eh   ::
         :: -> anisotropic ES          -0.002909442484 Eh   ::
         :: -> anisotropic XC          -0.002012016729 Eh   ::
         :: -> dispersion              -0.005692119884 Eh   ::
         :: repulsion energy            0.163409202746 Eh   ::
         :: add. restraining            0.000000418606 Eh   ::
         :::::::::::::::::::::::::::::::::::::::::::::::::::::

           -------------------------------------------------
          |                Property Printout                |
           -------------------------------------------------

    * Orbital Energies and Occupations

         #    Occupation            Energy/Eh            Energy/eV
      -------------------------------------------------------------
         1        2.0000           -0.7361143             -20.0307
       ...           ...                  ...                  ...
         6        2.0000           -0.6193096             -16.8523
         7        2.0000           -0.5976488             -16.2629
         8        2.0000           -0.5938216             -16.1587
         9        2.0000           -0.5836884             -15.8830
        10        2.0000           -0.5578737             -15.1805
        11        2.0000           -0.5498279             -14.9616
        12        1.9999           -0.5382571             -14.6467
        13        1.9997           -0.5152401             -14.0204
        14        1.9991           -0.4930477             -13.4165
        15        1.9988           -0.4872801             -13.2596
        16        1.9975           -0.4722624             -12.8509
        17        1.9894           -0.4449769             -12.1084
        18        1.9486           -0.4146387             -11.2829 (HOMO)
        19        0.0665           -0.2815404              -7.6611 (LUMO)
        20        0.0004           -0.1850042              -5.0342
        21                         -0.0024067              -0.0655
        22                          0.0375441               1.0216
        23                          0.0666165               1.8127
        24                          0.1208142               3.2875
        25                          0.1359414               3.6992
        26                          0.1485448               4.0421
        27                          0.1874005               5.0994
        28                          0.2193265               5.9682
        29                          0.2923158               7.9543
        30                          0.5137196              13.9790
      -------------------------------------------------------------
                  HL-Gap            0.1330983 Eh            3.6218 eV
             Fermi-level           -0.3455576 Eh           -9.4031 eV

   #   Z        covCN         q      C6AA      α(0)
   1   6 C      2.756     0.204    23.659     7.965
   2   8 O      0.856    -0.315    20.059     6.005
   3   6 C      3.801    -0.089    22.206     6.709
   4   1 H      0.923     0.041     2.440     2.443
   5   6 C      3.674     0.076    19.543     6.335
   6   1 H      0.924     0.074     2.046     2.237
   7   1 H      0.924     0.097     1.816     2.108
   8   8 O      1.753    -0.211    17.497     5.648
   9   1 H      0.924     0.081     1.970     2.195
  10   1 H      0.924     0.048     2.340     2.392
  11   8 O      1.709    -0.313    19.227     5.920
  12   1 H      0.804     0.309     0.695     1.309

 Mol. C6AA /au·bohr⁶  :       1227.557494
 Mol. C8AA /au·bohr⁸  :      26109.840012
 Mol. α(0) /au        :         51.266256


Wiberg/Mayer (AO) data.
largest (>0.10) Wiberg bond orders for each atom
          total WBO             WBO to atom ...
     1  C   3.848        O    2 1.877    C    3 1.008    H    4 0.932
     2  O   2.008        C    1 1.877
     3  C   3.971        C    1 1.008    C    5 0.980    H    7 0.959    H    6 0.942
     4  H   0.984        C    1 0.932
     5  C   3.938        O    8 0.987    C    3 0.980    H   10 0.966    H    9 0.948
     6  H   0.990        C    3 0.942
     7  H   0.989        C    3 0.959
     8  O   2.019        C    5 0.987    O   11 0.970
     9  H   0.992        C    5 0.948
    10  H   0.995        C    5 0.966
    11  O   1.921        O    8 0.970    H   12 0.895
    12  H   0.904        O   11 0.895

molecular dipole:
                 x           y           z       tot (Debye)
 q only:       -1.441      -0.533      -0.988
   full:       -1.769      -0.737      -1.261       5.831
molecular quadrupole (traceless):
                xx          xy          yy          xz          yz          zz
 q only:       -1.588      -0.172       0.196      -5.059      -4.035       1.393
  q+dip:       -1.532       1.272       1.003      -6.868      -5.304       0.529
   full:       -1.510       0.272       0.955      -6.901      -5.365       0.555


           -------------------------------------------------
          | TOTAL ENERGY              -21.548143286976 Eh   |
          | GRADIENT NORM               0.093719956061 Eh/α |
          | HOMO-LUMO GAP               3.621789070107 eV   |
           -------------------------------------------------
           ------------------------------------------------- 
          |                  Meta Dynamics                  |
           ------------------------------------------------- 
 trajectories on xtb.trj or xtb.trj.<n>
 
 MD time /ps        :   50.00
 dt /fs             :    0.40
 SCC accuracy       :    2.00
 temperature /K     :  300.00
 max steps          :125000
 block length (av.) :  5000
 dumpstep(trj) /fs  :   10.00    25
 dumpstep(coords)/fs: 1000.00  2500
 H atoms mass (amu) :     2
 # deg. of freedom  :    36
 SHAKE off
 Berendsen THERMOSTAT on
kpush  :    0.050
alpha  :    0.300
update : 100
         time (ps)    <Epot>      Ekin   <T>   T     Etot
      0    0.00      0.00000   0.0428    0.    0.   -21.45539
est. speed in wall clock h for 100 ps :  0.94
    200    0.08    -21.40462   0.0475  578.  833.   -21.47001
    400    0.16    -21.46231   0.0370  707.  649.   -21.47526
    600    0.24    -21.48245   0.0468  738.  821.   -21.47956
    800    0.32    -21.49158   0.0425  719.  746.   -21.48357
   1000    0.40    -21.49915   0.0570  732. 1001.   -21.48796
   1200    0.48    -21.50548   0.0507  748.  890.   -21.49216
   1400    0.56    -21.50962   0.0420  742.  737.   -21.49609
   1600    0.64    -21.51287   0.0316  732.  555.   -21.49798
   1800    0.72    -21.51523   0.0360  716.  631.   -21.50199
   2000    0.80    -21.51788   0.0372  711.  653.   -21.50609
   2200    0.88    -21.51962   0.0306  695.  537.   -21.50738
   2400    0.96    -21.52068   0.0223  673.  391.   -21.50825
   2600    1.04    -21.52084   0.0304  657.  533.   -21.46789
   2800    1.12    -21.51891   0.0289  646.  508.   -21.46620
   3000    1.20    -21.51800   0.0488  648.  856.   -21.46938
   3200    1.28    -21.51840   0.0566  665.  992.   -21.47363
   3400    1.36    -21.51915   0.0399  681.  700.   -21.48018
   3600    1.44    -21.51895   0.0260  676.  456.   -21.48308
   3800    1.52    -21.51941   0.0357  680.  626.   -21.48704
   4000    1.60    -21.52006   0.0433  684.  760.   -21.49124
   4200    1.68    -21.52042   0.0273  680.  478.   -21.49441
   4400    1.76    -21.52092   0.0356  678.  625.   -21.49829
   4600    1.84    -21.52151   0.0231  675.  405.   -21.49999
   4800    1.92    -21.52209   0.0352  672.  617.   -21.50330
block <Epot> / <T> :     -21.52685  666.     drift:  0.99D+02   Tbath : 300.
   5000    2.00    -21.52254   0.0302  666.  529.   -21.50433
   5200    2.08    -21.52187   0.0452  664.  793.   -21.46070
   5400    2.16    -21.52111   0.0294  664.  516.   -21.46454
   5600    2.24    -21.52048   0.0249  664.  436.   -21.46797
   5800    2.32    -21.51968   0.0290  658.  508.   -21.46980
   6000    2.40    -21.51934   0.0252  659.  443.   -21.47331
   6200    2.48    -21.51908   0.0396  658.  695.   -21.47604
   6400    2.56    -21.51876   0.0371  655.  650.   -21.47915
   6600    2.64    -21.51861   0.0314  653.  550.   -21.48072
   6800    2.72    -21.51834   0.0302  648.  529.   -21.48296
   7000    2.80    -21.51822   0.0285  645.  499.   -21.48508
   7200    2.88    -21.51808   0.0286  640.  503.   -21.48747
   7400    2.96    -21.51800   0.0224  636.  393.   -21.48762
   7600    3.04    -21.51754   0.0356  631.  625.   -21.44663
   7800    3.12    -21.51651   0.0483  630.  847.   -21.44459
   8000    3.20    -21.51563   0.0284  629.  498.   -21.44685
   8200    3.28    -21.51483   0.0349  629.  612.   -21.45066
   8400    3.36    -21.51436   0.0512  632.  898.   -21.45396
   8600    3.44    -21.51406   0.0464  635.  814.   -21.45921
   8800    3.52    -21.51372   0.0345  636.  606.   -21.46254
   9000    3.60    -21.51331   0.0315  634.  553.   -21.46514
   9200    3.68    -21.51300   0.0383  633.  672.   -21.46660
   9400    3.76    -21.51273   0.0270  631.  474.   -21.46874
   9600    3.84    -21.51246   0.0351  629.  616.   -21.47248
   9800    3.92    -21.51236   0.0375  629.  658.   -21.47464
  10000    4.00    -21.51225   0.0286  627.  501.   -21.47691
block <Epot> / <T> :     -21.50194  588.     drift:  0.99D+02   Tbath : 300.
  10200    4.08    -21.51153   0.0330  626.  579.   -21.43359
  10400    4.16    -21.51062   0.0340  624.  597.   -21.43574
  10600    4.24    -21.50989   0.0344  624.  603.   -21.43871
  10800    4.32    -21.50915   0.0274  622.  480.   -21.44068
  11000    4.40    -21.50856   0.0415  622.  727.   -21.44437
  11200    4.48    -21.50813   0.0438  623.  768.   -21.44600
  11400    4.56    -21.50774   0.0350  623.  613.   -21.45045
  11600    4.64    -21.50752   0.0367  626.  644.   -21.45334
  11800    4.72    -21.50722   0.0356  625.  624.   -21.45685
  12000    4.80    -21.50694   0.0295  624.  517.   -21.45936
  12200    4.88    -21.50674   0.0247  624.  434.   -21.46249
  12400    4.96    -21.50646   0.0213  621.  373.   -21.46518
  12600    5.04    -21.50615   0.0339  621.  595.   -21.42599
  12800    5.12    -21.50546   0.0264  621.  462.   -21.42478
  13000    5.20    -21.50475   0.0388  621.  680.   -21.42820
  13200    5.28    -21.50405   0.0307  619.  539.   -21.43029
  13400    5.36    -21.50346   0.0492  619.  863.   -21.43248
  13600    5.44    -21.50296   0.0416  619.  730.   -21.43590
  13800    5.52    -21.50259   0.0398  620.  699.   -21.43910
  14000    5.60    -21.50207   0.0296  618.  520.   -21.44000
  14200    5.68    -21.50176   0.0436  618.  764.   -21.44201
  14400    5.76    -21.50143   0.0306  618.  537.   -21.44647
  14600    5.84    -21.50111   0.0256  617.  448.   -21.44815
  14800    5.92    -21.50077   0.0206  615.  361.   -21.45008
  15000    6.00    -21.50048   0.0194  613.  340.   -21.45168
block <Epot> / <T> :     -21.47692  585.     drift:  0.99D+02   Tbath : 300.
  15200    6.08    -21.49980   0.0240  612.  422.   -21.40776
  15400    6.16    -21.49909   0.0303  612.  531.   -21.40906
  15600    6.24    -21.49846   0.0401  613.  704.   -21.41335
  15800    6.32    -21.49786   0.0359  613.  631.   -21.41787
  16000    6.40    -21.49734   0.0306  614.  537.   -21.42135
  16200    6.48    -21.49683   0.0316  614.  554.   -21.42199
  16400    6.56    -21.49636   0.0297  614.  522.   -21.42583
  16600    6.64    -21.49595   0.0306  614.  537.   -21.42973
  16800    6.72    -21.49558   0.0259  613.  454.   -21.43183
  17000    6.80    -21.49522   0.0265  613.  465.   -21.43345
  17200    6.88    -21.49485   0.0289  612.  508.   -21.43496
  17400    6.96    -21.49454   0.0251  611.  440.   -21.43793
  17600    7.04    -21.49408   0.0312  609.  547.   -21.39766
  17800    7.12    -21.49337   0.0381  610.  668.   -21.39565
  18000    7.20    -21.49275   0.0373  611.  655.   -21.40010
  18200    7.28    -21.49213   0.0242  611.  424.   -21.40142
  18400    7.36    -21.49143   0.0309  609.  543.   -21.40399
  18600    7.44    -21.49089   0.0463  609.  812.   -21.40594
  18800    7.52    -21.49036   0.0266  609.  467.   -21.40830
  19000    7.60    -21.48977   0.0287  607.  504.   -21.41151
  19200    7.68    -21.48932   0.0344  607.  604.   -21.41333
  19400    7.76    -21.48890   0.0292  607.  513.   -21.41578
  19600    7.84    -21.48858   0.0350  608.  615.   -21.41985
  19800    7.92    -21.48823   0.0308  608.  541.   -21.42276
  20000    8.00    -21.48789   0.0320  607.  561.   -21.42506
block <Epot> / <T> :     -21.45012  589.     drift:  0.26D-01   Tbath : 300.
  20200    8.08    -21.48725   0.0304  607.  534.   -21.37926
  20400    8.16    -21.48659   0.0504  607.  885.   -21.38341
  20600    8.24    -21.48605   0.0369  609.  647.   -21.38778
  20800    8.32    -21.48547   0.0319  610.  560.   -21.39102
  21000    8.40    -21.48484   0.0389  608.  682.   -21.39197
  21200    8.48    -21.48434   0.0497  609.  872.   -21.39510
  21400    8.56    -21.48390   0.0349  610.  612.   -21.39842
  21600    8.64    -21.48346   0.0352  610.  618.   -21.40186
  21800    8.72    -21.48303   0.0328  609.  575.   -21.40431
  22000    8.80    -21.48260   0.0320  609.  561.   -21.40675
  22200    8.88    -21.48217   0.0220  608.  386.   -21.40886
  22400    8.96    -21.48174   0.0279  606.  490.   -21.41028
  22600    9.04    -21.48124   0.0329  605.  578.   -21.36858
  22800    9.12    -21.48056   0.0450  605.  789.   -21.36781
  23000    9.20    -21.47999   0.0467  607.  819.   -21.37289
  23200    9.28    -21.47938   0.0341  607.  598.   -21.37748
  23400    9.36    -21.47888   0.0351  608.  615.   -21.37976
  23600    9.44    -21.47836   0.0330  608.  580.   -21.38260
  23800    9.52    -21.47790   0.0403  609.  707.   -21.38580
  24000    9.60    -21.47745   0.0436  609.  764.   -21.39035
  24200    9.68    -21.47705   0.0247  609.  433.   -21.39350
  24400    9.76    -21.47665   0.0307  609.  539.   -21.39655
  24600    9.84    -21.47628   0.0279  609.  490.   -21.39735
  24800    9.92    -21.47591   0.0332  609.  582.   -21.40040
  25000   10.00    -21.47555   0.0247  608.  433.   -21.40245
block <Epot> / <T> :     -21.42616  611.     drift:  0.25D-01   Tbath : 300.
  25200   10.08    -21.47496   0.0438  607.  769.   -21.35652
  25400   10.16    -21.47442   0.0575  609. 1009.   -21.36203
  25600   10.24    -21.47398   0.0608  612. 1066.   -21.36811
  25800   10.32    -21.47357   0.0533  614.  934.   -21.37249
  26000   10.40    -21.47320   0.0465  616.  816.   -21.37782
  26200   10.48    -21.47278   0.0473  616.  830.   -21.38216
  26400   10.56    -21.47244   0.0437  617.  766.   -21.38529
  26600   10.64    -21.47213   0.0414  618.  727.   -21.38964
  26800   10.72    -21.47180   0.0331  619.  582.   -21.39252
  27000   10.80    -21.47146   0.0367  618.  644.   -21.39618
  27200   10.88    -21.47118   0.0368  618.  645.   -21.39933
  27400   10.96    -21.47092   0.0254  618.  446.   -21.40182
  27600   11.04    -21.47059   0.0335  618.  587.   -21.36217
  27800   11.12    -21.47004   0.0449  618.  788.   -21.36038
  28000   11.20    -21.46961   0.0566  619.  993.   -21.36510
  28200   11.28    -21.46918   0.0439  620.  771.   -21.36849
  28400   11.36    -21.46874   0.0342  620.  600.   -21.37113
  28600   11.44    -21.46827   0.0335  619.  589.   -21.37506
  28800   11.52    -21.46784   0.0288  619.  505.   -21.37737
  29000   11.60    -21.46740   0.0308  618.  540.   -21.37885
  29200   11.68    -21.46701   0.0296  617.  519.   -21.37893
  29400   11.76    -21.46667   0.0301  617.  528.   -21.38309
  29600   11.84    -21.46633   0.0236  617.  415.   -21.38514
  29800   11.92    -21.46597   0.0264  616.  463.   -21.38745
  30000   12.00    -21.46565   0.0292  615.  513.   -21.39026
block <Epot> / <T> :     -21.41613  653.     drift:  0.21D-01   Tbath : 300.
  30200   12.08    -21.46514   0.0357  615.  627.   -21.34351
  30400   12.16    -21.46458   0.0349  615.  611.   -21.34632
  30600   12.24    -21.46414   0.0402  616.  705.   -21.35175
  30800   12.32    -21.46373   0.0458  618.  803.   -21.35665
  31000   12.40    -21.46335   0.0387  619.  680.   -21.36234
  31200   12.48    -21.46294   0.0348  619.  610.   -21.36393
  31400   12.56    -21.46254   0.0307  619.  539.   -21.36701
  31600   12.64    -21.46214   0.0246  618.  432.   -21.36862
  31800   12.72    -21.46173   0.0323  617.  566.   -21.37048
  32000   12.80    -21.46137   0.0257  617.  451.   -21.37226
  32200   12.88    -21.46102   0.0179  617.  313.   -21.37449
  32400   12.96    -21.46067   0.0298  616.  523.   -21.37727
  32600   13.04    -21.46030   0.0451  616.  791.   -21.33976
  32800   13.12    -21.45984   0.0399  617.  700.   -21.33947
  33000   13.20    -21.45932   0.0310  616.  544.   -21.34237
  33200   13.28    -21.45885   0.0279  617.  490.   -21.34564
  33400   13.36    -21.45838   0.0319  616.  560.   -21.34824
  33600   13.44    -21.45788   0.0201  615.  352.   -21.34863
  33800   13.52    -21.45737   0.0273  614.  478.   -21.35103
  34000   13.60    -21.45694   0.0360  614.  632.   -21.35247
  34200   13.68    -21.45654   0.0232  614.  407.   -21.35518
  34400   13.76    -21.45610   0.0217  613.  380.   -21.35729
  34600   13.84    -21.45570   0.0373  612.  655.   -21.35924
  34800   13.92    -21.45532   0.0279  611.  489.   -21.36177
  35000   14.00    -21.45493   0.0245  610.  430.   -21.36192
block <Epot> / <T> :     -21.39056  582.     drift:  0.19D-01   Tbath : 300.
  35200   14.08    -21.45440   0.0424  610.  744.   -21.31839
  35400   14.16    -21.45391   0.0393  611.  689.   -21.32231
  35600   14.24    -21.45341   0.0409  612.  717.   -21.32728
  35800   14.32    -21.45296   0.0525  613.  921.   -21.33072
  36000   14.40    -21.45251   0.0415  613.  727.   -21.33416
  36200   14.48    -21.45207   0.0325  613.  570.   -21.33835
  36400   14.56    -21.45165   0.0448  613.  786.   -21.34176
  36600   14.64    -21.45124   0.0326  614.  571.   -21.34230
  36800   14.72    -21.45082   0.0279  613.  490.   -21.34557
  37000   14.80    -21.45044   0.0301  613.  529.   -21.34798
  37200   14.88    -21.45007   0.0362  613.  635.   -21.35080
  37400   14.96    -21.44971   0.0284  612.  497.   -21.35280
  37600   15.04    -21.44930   0.0303  612.  531.   -21.31382
  37800   15.12    -21.44877   0.0481  612.  844.   -21.31147
  38000   15.20    -21.44826   0.0308  612.  541.   -21.31511
  38200   15.28    -21.44774   0.0439  612.  770.   -21.31776
  38400   15.36    -21.44725   0.0338  612.  594.   -21.32020
  38600   15.44    -21.44681   0.0422  613.  740.   -21.32362
  38800   15.52    -21.44641   0.0414  613.  726.   -21.32865
  39000   15.60    -21.44601   0.0351  613.  616.   -21.33185
  39200   15.68    -21.44559   0.0246  613.  432.   -21.33430
  39400   15.76    -21.44515   0.0212  612.  372.   -21.33561
  39600   15.84    -21.44475   0.0262  612.  460.   -21.33762
  39800   15.92    -21.44436   0.0289  611.  507.   -21.33921
  40000   16.00    -21.44398   0.0306  611.  536.   -21.34078
block <Epot> / <T> :     -21.36735  613.     drift:  0.20D-01   Tbath : 300.
  40200   16.08    -21.44347   0.0316  610.  555.   -21.29575
  40400   16.16    -21.44290   0.0332  610.  583.   -21.30026
  40600   16.24    -21.44245   0.0593  611. 1041.   -21.30265
  40800   16.32    -21.44204   0.0432  613.  759.   -21.30950
  41000   16.40    -21.44160   0.0374  613.  655.   -21.31435
  41200   16.48    -21.44115   0.0378  613.  664.   -21.31438
  41400   16.56    -21.44072   0.0330  613.  578.   -21.31922
  41600   16.64    -21.44033   0.0498  614.  874.   -21.32340
  41800   16.72    -21.43995   0.0323  614.  567.   -21.32623
  42000   16.80    -21.43958   0.0443  614.  778.   -21.32816
  42200   16.88    -21.43922   0.0270  614.  474.   -21.33286
  42400   16.96    -21.43887   0.0362  613.  635.   -21.33493
  42600   17.04    -21.43850   0.0308  613.  540.   -21.29660
  42800   17.12    -21.43796   0.0338  613.  593.   -21.29197
  43000   17.20    -21.43742   0.0333  613.  584.   -21.29417
  43200   17.28    -21.43692   0.0389  613.  682.   -21.29604
  43400   17.36    -21.43653   0.0506  614.  889.   -21.30217
  43600   17.44    -21.43612   0.0543  615.  953.   -21.30762
  43800   17.52    -21.43571   0.0290  615.  509.   -21.31048
  44000   17.60    -21.43533   0.0345  615.  604.   -21.31316
  44200   17.68    -21.43493   0.0286  615.  502.   -21.31598
  44400   17.76    -21.43457   0.0321  615.  563.   -21.31921
  44600   17.84    -21.43422   0.0362  615.  636.   -21.32277
  44800   17.92    -21.43388   0.0328  615.  576.   -21.32591
  45000   18.00    -21.43356   0.0182  615.  318.   -21.32828
block <Epot> / <T> :     -21.35011  649.     drift:  0.22D-01   Tbath : 300.
  45200   18.08    -21.43309   0.0446  615.  782.   -21.28444
  45400   18.16    -21.43268   0.0663  616. 1163.   -21.29031
  45600   18.24    -21.43227   0.0364  617.  639.   -21.29581
  45800   18.32    -21.43184   0.0477  617.  837.   -21.29867
  46000   18.40    -21.43143   0.0465  617.  816.   -21.30215
  46200   18.48    -21.43104   0.0275  617.  482.   -21.30541
  46400   18.56    -21.43067   0.0346  618.  608.   -21.30794
  46600   18.64    -21.43027   0.0330  617.  579.   -21.31067
  46800   18.72    -21.42990   0.0320  617.  561.   -21.31342
  47000   18.80    -21.42954   0.0393  617.  689.   -21.31574
  47200   18.88    -21.42920   0.0270  616.  473.   -21.31823
  47400   18.96    -21.42885   0.0216  616.  379.   -21.31939
  47600   19.04    -21.42847   0.0281  615.  493.   -21.28068
  47800   19.12    -21.42800   0.0484  616.  850.   -21.27841
  48000   19.20    -21.42758   0.0299  617.  525.   -21.28286
  48200   19.28    -21.42714   0.0455  617.  798.   -21.28606
  48400   19.36    -21.42673   0.0410  617.  719.   -21.29087
  48600   19.44    -21.42633   0.0248  617.  436.   -21.29409
  48800   19.52    -21.42593   0.0385  617.  675.   -21.29670
  49000   19.60    -21.42553   0.0337  617.  591.   -21.29863
  49200   19.68    -21.42513   0.0241  616.  423.   -21.29919
  49400   19.76    -21.42473   0.0215  616.  377.   -21.30262
  49600   19.84    -21.42434   0.0299  615.  524.   -21.30356
  49800   19.92    -21.42400   0.0321  615.  562.   -21.30610
  50000   20.00    -21.42366   0.0293  615.  513.   -21.30860
block <Epot> / <T> :     -21.33458  612.     drift:  0.19D-01   Tbath : 300.
  50200   20.08    -21.42322   0.0393  615.  689.   -21.26391
  50400   20.16    -21.42275   0.0485  615.  852.   -21.26805
  50600   20.24    -21.42229   0.0449  615.  788.   -21.27074
  50800   20.32    -21.42184   0.0315  615.  553.   -21.27504
  51000   20.40    -21.42140   0.0346  615.  607.   -21.27667
  51200   20.48    -21.42096   0.0273  615.  478.   -21.27946
  51400   20.56    -21.42054   0.0252  614.  442.   -21.28163
  51600   20.64    -21.42014   0.0394  614.  692.   -21.28417
  51800   20.72    -21.41977   0.0364  615.  639.   -21.28750
  52000   20.80    -21.41940   0.0281  615.  492.   -21.29083
  52200   20.88    -21.41904   0.0311  614.  545.   -21.29335
  52400   20.96    -21.41868   0.0291  614.  511.   -21.29483
  52600   21.04    -21.41827   0.0182  613.  320.   -21.25675
  52800   21.12    -21.41776   0.0500  613.  877.   -21.25168
  53000   21.20    -21.41732   0.0472  614.  828.   -21.25642
  53200   21.28    -21.41688   0.0309  615.  541.   -21.25957
  53400   21.36    -21.41640   0.0292  614.  512.   -21.26182
  53600   21.44    -21.41595   0.0331  614.  581.   -21.26406
  53800   21.52    -21.41552   0.0425  614.  745.   -21.26679
  54000   21.60    -21.41509   0.0309  614.  542.   -21.27100
  54200   21.68    -21.41467   0.0348  613.  610.   -21.27143
  54400   21.76    -21.41425   0.0250  613.  439.   -21.27378
  54600   21.84    -21.41385   0.0231  612.  406.   -21.27445
  54800   21.92    -21.41343   0.0260  612.  456.   -21.27651
  55000   22.00    -21.41303   0.0279  611.  489.   -21.27807
block <Epot> / <T> :     -21.30662  577.     drift:  0.20D-01   Tbath : 300.
  55200   22.08    -21.41253   0.0293  611.  513.   -21.23346
  55400   22.16    -21.41200   0.0301  611.  528.   -21.23551
  55600   22.24    -21.41152   0.0508  611.  891.   -21.23970
  55800   22.32    -21.41105   0.0461  611.  808.   -21.24259
  56000   22.40    -21.41058   0.0215  611.  378.   -21.24562
  56200   22.48    -21.41007   0.0211  610.  370.   -21.24769
  56400   22.56    -21.40960   0.0292  610.  513.   -21.24774
  56600   22.64    -21.40915   0.0319  610.  560.   -21.25101
  56800   22.72    -21.40871   0.0346  610.  606.   -21.25451
  57000   22.80    -21.40829   0.0288  610.  506.   -21.25620
  57200   22.88    -21.40788   0.0346  610.  607.   -21.25880
  57400   22.96    -21.40748   0.0340  610.  597.   -21.26231
  57600   23.04    -21.40705   0.0265  609.  465.   -21.22482
  57800   23.12    -21.40650   0.0184  609.  323.   -21.21929
  58000   23.20    -21.40595   0.0296  608.  518.   -21.21987
  58200   23.28    -21.40540   0.0336  608.  590.   -21.22260
  58400   23.36    -21.40487   0.0334  607.  587.   -21.22406
  58600   23.44    -21.40437   0.0348  607.  610.   -21.22574
  58800   23.52    -21.40386   0.0361  607.  634.   -21.22711
  59000   23.60    -21.40338   0.0401  607.  704.   -21.23041
  59200   23.68    -21.40292   0.0433  607.  759.   -21.23354
  59400   23.76    -21.40246   0.0315  607.  552.   -21.23701
  59600   23.84    -21.40202   0.0326  607.  572.   -21.23847
  59800   23.92    -21.40158   0.0345  607.  605.   -21.24190
  60000   24.00    -21.40116   0.0314  606.  552.   -21.24505
block <Epot> / <T> :     -21.27055  554.     drift:  0.27D-01   Tbath : 300.
  60200   24.08    -21.40068   0.0412  607.  722.   -21.20300
  60400   24.16    -21.40018   0.0508  607.  891.   -21.20771
  60600   24.24    -21.39971   0.0501  608.  878.   -21.21296
  60800   24.32    -21.39927   0.0441  609.  774.   -21.21748
  61000   24.40    -21.39883   0.0482  610.  845.   -21.22161
  61200   24.48    -21.39840   0.0439  610.  770.   -21.22674
  61400   24.56    -21.39797   0.0398  610.  699.   -21.22906
  61600   24.64    -21.39757   0.0396  611.  694.   -21.23485
  61800   24.72    -21.39720   0.0327  611.  573.   -21.23828
  62000   24.80    -21.39683   0.0391  612.  686.   -21.24358
  62200   24.88    -21.39645   0.0279  612.  489.   -21.24578
  62400   24.96    -21.39609   0.0325  612.  570.   -21.24752
  62600   25.04    -21.39572   0.0435  612.  764.   -21.21318
  62800   25.12    -21.39554   0.1478  617. 2594.   -21.21940
  63000   25.20    -21.39571   0.2619  627. 4595.   -21.25046
  63200   25.28    -21.39593   0.1793  636. 3146.   -21.27936
  63400   25.36    -21.39616   0.2109  643. 3699.   -21.30681
  63600   25.44    -21.39644   0.1669  650. 2929.   -21.33972
  63800   25.52    -21.39675   0.1381  656. 2423.   -21.36351
  64000   25.60    -21.39711   0.1274  662. 2235.   -21.37889
  64200   25.68    -21.39750   0.1240  667. 2175.   -21.39842
  64400   25.76    -21.39790   0.0950  672. 1667.   -21.41402
  64600   25.84    -21.39833   0.0870  676. 1526.   -21.42945
  64800   25.92    -21.39876   0.1039  679. 1823.   -21.44266
  65000   26.00    -21.39921   0.0650  682. 1140.   -21.45256
block <Epot> / <T> :     -21.37640 1593.     drift: -0.89D-02   Tbath : 300.
  65200   26.08    -21.39961   0.1085  685. 1904.   -21.42628
  65400   26.16    -21.40002   0.1048  688. 1838.   -21.43699
  65600   26.24    -21.40043   0.0825  691. 1447.   -21.45695
  65800   26.32    -21.40083   0.0610  693. 1071.   -21.46372
  66000   26.40    -21.40127   0.0929  695. 1630.   -21.47298
  66200   26.48    -21.40173   0.0736  697. 1292.   -21.48002
  66400   26.56    -21.40220   0.0774  699. 1357.   -21.49276
  66600   26.64    -21.40268   0.0518  700.  909.   -21.50110
  66800   26.72    -21.40317   0.0543  701.  952.   -21.50438
  67000   26.80    -21.40367   0.0654  702. 1148.   -21.51165
  67200   26.88    -21.40417   0.0545  703.  957.   -21.52179
  67400   26.96    -21.40467   0.0590  703. 1036.   -21.52332
  67600   27.04    -21.40515   0.0609  704. 1068.   -21.49238
  67800   27.12    -21.40559   0.0708  705. 1243.   -21.49013
  68000   27.20    -21.40606   0.0912  707. 1599.   -21.50045
  68200   27.28    -21.40652   0.0493  708.  865.   -21.50888
  68400   27.36    -21.40698   0.0575  708. 1009.   -21.51436
  68600   27.44    -21.40745   0.0459  709.  806.   -21.52068
  68800   27.52    -21.40792   0.0467  709.  819.   -21.52448
  69000   27.60    -21.40842   0.0464  710.  814.   -21.53112
  69200   27.68    -21.40891   0.0535  710.  938.   -21.53585
  69400   27.76    -21.40943   0.0573  710. 1005.   -21.53983
  69600   27.84    -21.40995   0.0497  711.  872.   -21.54575
  69800   27.92    -21.41047   0.0455  711.  799.   -21.55103
  70000   28.00    -21.41100   0.0353  711.  619.   -21.55552
block <Epot> / <T> :     -21.56447 1086.     drift: -0.88D-01   Tbath : 300.
  70200   28.08    -21.41147   0.0525  711.  921.   -21.51548
  70400   28.16    -21.41194   0.0602  712. 1055.   -21.52250
  70600   28.24    -21.41241   0.0381  713.  668.   -21.52931
  70800   28.32    -21.41290   0.0679  714. 1192.   -21.53557
  71000   28.40    -21.41342   0.0631  714. 1107.   -21.54221
  71200   28.48    -21.41392   0.0442  715.  776.   -21.54782
  71400   28.56    -21.41442   0.0352  715.  618.   -21.55233
  71600   28.64    -21.41491   0.0426  715.  747.   -21.55307
  71800   28.72    -21.41541   0.0423  715.  742.   -21.55609
  72000   28.80    -21.41591   0.0242  714.  425.   -21.56181
  72200   28.88    -21.41642   0.0417  714.  731.   -21.56422
  72400   28.96    -21.41692   0.0275  714.  482.   -21.56658
  72600   29.04    -21.41739   0.0284  713.  499.   -21.53106
  72800   29.12    -21.41779   0.0481  713.  844.   -21.52542
  73000   29.20    -21.41824   0.0499  713.  875.   -21.53264
  73200   29.28    -21.41869   0.0508  714.  891.   -21.53779
  73400   29.36    -21.41916   0.0389  714.  682.   -21.54202
  73600   29.44    -21.41959   0.0406  714.  712.   -21.54632
  73800   29.52    -21.42002   0.0379  714.  664.   -21.54899
  74000   29.60    -21.42047   0.0426  713.  747.   -21.55062
  74200   29.68    -21.42095   0.0389  713.  683.   -21.55377
  74400   29.76    -21.42141   0.0255  713.  447.   -21.56119
  74600   29.84    -21.42185   0.0323  712.  566.   -21.56165
  74800   29.92    -21.42231   0.0330  712.  579.   -21.56237
  75000   30.00    -21.42277   0.0288  712.  505.   -21.56435
block <Epot> / <T> :     -21.58751  717.     drift: -0.11D+00   Tbath : 300.
  75200   30.08    -21.42316   0.0436  711.  765.   -21.52326
  75400   30.16    -21.42358   0.0545  712.  957.   -21.52775
  75600   30.24    -21.42400   0.0611  712. 1071.   -21.53444
  75800   30.32    -21.42440   0.0320  712.  561.   -21.53871
  76000   30.40    -21.42479   0.0271  712.  476.   -21.54091
  76200   30.48    -21.42520   0.0412  712.  722.   -21.54452
  76400   30.56    -21.42561   0.0412  712.  722.   -21.54624
  76600   30.64    -21.42603   0.0351  711.  615.   -21.55127
  76800   30.72    -21.42647   0.0341  711.  598.   -21.55548
  77000   30.80    -21.42689   0.0318  711.  558.   -21.55823
  77200   30.88    -21.42733   0.0425  711.  746.   -21.56184
  77400   30.96    -21.42778   0.0357  711.  627.   -21.56600
  77600   31.04    -21.42821   0.0440  711.  772.   -21.53069
  77800   31.12    -21.42858   0.0441  711.  773.   -21.52876
  78000   31.20    -21.42897   0.0625  711. 1097.   -21.53451
  78200   31.28    -21.42938   0.0504  712.  884.   -21.53851
  78400   31.36    -21.42979   0.0375  712.  658.   -21.54459
  78600   31.44    -21.43020   0.0417  712.  731.   -21.54919
  78800   31.52    -21.43058   0.0351  712.  616.   -21.55138
  79000   31.60    -21.43098   0.0307  712.  539.   -21.55369
  79200   31.68    -21.43140   0.0380  712.  666.   -21.55790
  79400   31.76    -21.43181   0.0315  711.  553.   -21.56157
  79600   31.84    -21.43221   0.0362  711.  635.   -21.56298
  79800   31.92    -21.43264   0.0290  711.  508.   -21.56713
  80000   32.00    -21.43303   0.0215  710.  378.   -21.56836
block <Epot> / <T> :     -21.58701  687.     drift: -0.65D-01   Tbath : 300.
  80200   32.08    -21.43339   0.0462  710.  811.   -21.52603
  80400   32.16    -21.43374   0.0402  710.  705.   -21.53067
  80600   32.24    -21.43408   0.0306  710.  538.   -21.53573
  80800   32.32    -21.43441   0.0306  710.  537.   -21.53535
  81000   32.40    -21.43474   0.0286  709.  501.   -21.53892
  81200   32.48    -21.43507   0.0269  709.  471.   -21.54224
  81400   32.56    -21.43542   0.0392  708.  688.   -21.54330
  81600   32.64    -21.43578   0.0330  708.  579.   -21.54679
  81800   32.72    -21.43616   0.0420  708.  738.   -21.55112
  82000   32.80    -21.43653   0.0258  708.  453.   -21.55537
  82200   32.88    -21.43688   0.0292  707.  513.   -21.55585
  82400   32.96    -21.43723   0.0283  707.  497.   -21.55719
  82600   33.04    -21.43758   0.0355  706.  623.   -21.52368
  82800   33.12    -21.43787   0.0457  706.  802.   -21.51927
  83000   33.20    -21.43817   0.0279  706.  489.   -21.52285
  83200   33.28    -21.43844   0.0366  706.  641.   -21.52453
  83400   33.36    -21.43875   0.0469  706.  824.   -21.52963
  83600   33.44    -21.43909   0.0558  706.  979.   -21.53266
  83800   33.52    -21.43944   0.0491  706.  861.   -21.54076
  84000   33.60    -21.43976   0.0438  706.  768.   -21.54388
  84200   33.68    -21.44009   0.0363  706.  636.   -21.54313
  84400   33.76    -21.44044   0.0409  706.  718.   -21.54964
  84600   33.84    -21.44079   0.0350  706.  614.   -21.55345
  84800   33.92    -21.44113   0.0347  705.  609.   -21.55559
  85000   34.00    -21.44147   0.0223  705.  391.   -21.55689
block <Epot> / <T> :     -21.57648  627.     drift: -0.36D-02   Tbath : 300.
  85200   34.08    -21.44177   0.0400  705.  702.   -21.51568
  85400   34.16    -21.44206   0.0395  705.  693.   -21.52119
  85600   34.24    -21.44234   0.0366  705.  642.   -21.52474
  85800   34.32    -21.44263   0.0419  705.  736.   -21.52734
  86000   34.40    -21.44293   0.0606  705. 1063.   -21.53166
  86200   34.48    -21.44324   0.0299  705.  524.   -21.53403
  86400   34.56    -21.44353   0.0296  705.  520.   -21.53974
  86600   34.64    -21.44382   0.0379  705.  664.   -21.54132
  86800   34.72    -21.44413   0.0345  704.  606.   -21.54483
  87000   34.80    -21.44445   0.0340  704.  596.   -21.54837
  87200   34.88    -21.44476   0.0257  704.  450.   -21.54980
  87400   34.96    -21.44506   0.0333  703.  583.   -21.55007
  87600   35.04    -21.44535   0.0244  703.  427.   -21.51726
  87800   35.12    -21.44556   0.0378  702.  663.   -21.50799
  88000   35.20    -21.44581   0.0350  703.  615.   -21.51204
  88200   35.28    -21.44604   0.0276  702.  483.   -21.51557
  88400   35.36    -21.44629   0.0445  702.  780.   -21.51891
  88600   35.44    -21.44654   0.0329  702.  578.   -21.52195
  88800   35.52    -21.44678   0.0332  702.  582.   -21.52462
  89000   35.60    -21.44703   0.0202  701.  354.   -21.52679
  89200   35.68    -21.44726   0.0287  701.  503.   -21.52734
  89400   35.76    -21.44751   0.0356  700.  624.   -21.52988
  89600   35.84    -21.44777   0.0328  700.  576.   -21.53393
  89800   35.92    -21.44803   0.0273  700.  479.   -21.53447
  90000   36.00    -21.44828   0.0251  699.  441.   -21.53526
block <Epot> / <T> :     -21.56398  599.     drift:  0.81D-02   Tbath : 300.
  90200   36.08    -21.44848   0.0437  699.  766.   -21.49139
  90400   36.16    -21.44869   0.0599  699. 1051.   -21.49712
  90600   36.24    -21.44892   0.0491  700.  861.   -21.50189
  90800   36.32    -21.44915   0.0551  700.  967.   -21.50765
  91000   36.40    -21.44938   0.0561  700.  983.   -21.51326
  91200   36.48    -21.44964   0.0424  701.  744.   -21.51865
  91400   36.56    -21.44989   0.0400  701.  702.   -21.52505
  91600   36.64    -21.45013   0.0368  701.  645.   -21.52639
  91800   36.72    -21.45037   0.0285  700.  500.   -21.52758
  92000   36.80    -21.45062   0.0303  700.  532.   -21.53104
  92200   36.88    -21.45088   0.0267  700.  469.   -21.53516
  92400   36.96    -21.45112   0.0283  699.  496.   -21.53588
  92600   37.04    -21.45135   0.0352  699.  618.   -21.50300
  92800   37.12    -21.45154   0.0525  699.  920.   -21.49817
  93000   37.20    -21.45174   0.0377  699.  661.   -21.50220
  93200   37.28    -21.45194   0.0366  699.  642.   -21.50620
  93400   37.36    -21.45215   0.0486  699.  853.   -21.51047
  93600   37.44    -21.45239   0.0477  700.  837.   -21.51665
  93800   37.52    -21.45262   0.0345  700.  606.   -21.52057
  94000   37.60    -21.45284   0.0342  700.  601.   -21.52249
  94200   37.68    -21.45305   0.0270  699.  473.   -21.52460
  94400   37.76    -21.45325   0.0263  698.  461.   -21.52622
  94600   37.84    -21.45346   0.0272  698.  477.   -21.52787
  94800   37.92    -21.45368   0.0362  698.  634.   -21.52985
  95000   38.00    -21.45391   0.0198  697.  348.   -21.53172
block <Epot> / <T> :     -21.55511  661.     drift:  0.11D-01   Tbath : 300.
  95200   38.08    -21.45407   0.0341  697.  599.   -21.48671
  95400   38.16    -21.45421   0.0497  697.  873.   -21.48934
  95600   38.24    -21.45438   0.0364  697.  639.   -21.49466
  95800   38.32    -21.45455   0.0313  697.  549.   -21.49807
  96000   38.40    -21.45472   0.0249  697.  436.   -21.50058
  96200   38.48    -21.45488   0.0475  696.  833.   -21.50384
  96400   38.56    -21.45507   0.0401  696.  703.   -21.50637
  96600   38.64    -21.45525   0.0307  696.  538.   -21.50942
  96800   38.72    -21.45543   0.0329  696.  577.   -21.51197
  97000   38.80    -21.45560   0.0274  695.  481.   -21.51468
  97200   38.88    -21.45578   0.0255  695.  448.   -21.51584
  97400   38.96    -21.45598   0.0331  695.  580.   -21.51930
  97600   39.04    -21.45615   0.0326  694.  572.   -21.48567
  97800   39.12    -21.45628   0.0572  694. 1004.   -21.47641
  98000   39.20    -21.45642   0.0449  695.  788.   -21.48149
  98200   39.28    -21.45657   0.0370  695.  650.   -21.48558
  98400   39.36    -21.45672   0.0478  695.  839.   -21.48992
  98600   39.44    -21.45688   0.0423  695.  743.   -21.49450
  98800   39.52    -21.45703   0.0286  695.  502.   -21.49729
  99000   39.60    -21.45719   0.0387  695.  680.   -21.50235
  99200   39.68    -21.45735   0.0305  694.  534.   -21.50355
  99400   39.76    -21.45752   0.0395  694.  693.   -21.50806
  99600   39.84    -21.45771   0.0503  694.  882.   -21.51229
  99800   39.92    -21.45790   0.0377  694.  662.   -21.51518
 100000   40.00    -21.45808   0.0226  694.  397.   -21.51756
block <Epot> / <T> :     -21.53730  632.     drift:  0.13D-01   Tbath : 300.
 100200   40.08    -21.45821   0.0592  694. 1038.   -21.47472
 100400   40.16    -21.45835   0.0349  694.  612.   -21.47860
 100600   40.24    -21.45846   0.0415  694.  729.   -21.48333
 100800   40.32    -21.45859   0.0366  694.  642.   -21.48738
 101000   40.40    -21.45871   0.0300  694.  527.   -21.48839
 101200   40.48    -21.45884   0.0311  693.  546.   -21.49126
 101400   40.56    -21.45897   0.0262  693.  459.   -21.49479
 101600   40.64    -21.45911   0.0401  693.  704.   -21.49707
 101800   40.72    -21.45927   0.0503  693.  883.   -21.49989
 102000   40.80    -21.45943   0.0487  693.  854.   -21.50640
 102200   40.88    -21.45960   0.0262  693.  460.   -21.50862
 102400   40.96    -21.45975   0.0219  692.  384.   -21.51193
 102600   41.04    -21.45990   0.0359  692.  631.   -21.47795
 102800   41.12    -21.46000   0.0564  692.  989.   -21.47125
 103000   41.20    -21.46013   0.0403  693.  708.   -21.47758
 103200   41.28    -21.46027   0.0509  693.  893.   -21.48288
 103400   41.36    -21.46041   0.0331  693.  581.   -21.48796
 103600   41.44    -21.46053   0.0303  693.  531.   -21.49251
 103800   41.52    -21.46066   0.0420  693.  737.   -21.49447
 104000   41.60    -21.46081   0.0348  693.  611.   -21.49865
 104200   41.68    -21.46095   0.0351  693.  615.   -21.50219
 104400   41.76    -21.46110   0.0366  693.  642.   -21.50373
 104600   41.84    -21.46124   0.0267  692.  468.   -21.50731
 104800   41.92    -21.46138   0.0355  692.  623.   -21.50727
 105000   42.00    -21.46154   0.0342  692.  600.   -21.51005
block <Epot> / <T> :     -21.53070  646.     drift:  0.12D-01   Tbath : 300.
 105200   42.08    -21.46164   0.0327  691.  574.   -21.46586
 105400   42.16    -21.46173   0.0445  691.  781.   -21.47004
 105600   42.24    -21.46183   0.0439  691.  770.   -21.47328
 105800   42.32    -21.46192   0.0421  691.  739.   -21.47858
 106000   42.40    -21.46203   0.0323  691.  566.   -21.48056
 106200   42.48    -21.46212   0.0498  691.  873.   -21.48276
 106400   42.56    -21.46226   0.0612  691. 1073.   -21.48732
 106600   42.64    -21.46239   0.0303  692.  531.   -21.49154
 106800   42.72    -21.46250   0.0310  691.  544.   -21.49348
 107000   42.80    -21.46264   0.0440  691.  772.   -21.50061
 107200   42.88    -21.46279   0.0363  691.  636.   -21.50471
 107400   42.96    -21.46292   0.0229  691.  401.   -21.50576
 107600   43.04    -21.46303   0.0249  690.  436.   -21.47371
 107800   43.12    -21.46310   0.0313  690.  550.   -21.46307
 108000   43.20    -21.46319   0.0560  690.  983.   -21.46845
 108200   43.28    -21.46329   0.0328  691.  576.   -21.47359
 108400   43.36    -21.46337   0.0456  691.  800.   -21.47519
 108600   43.44    -21.46349   0.0587  691. 1029.   -21.48052
 108800   43.52    -21.46359   0.0315  691.  553.   -21.48342
 109000   43.60    -21.46369   0.0471  691.  826.   -21.48653
 109200   43.68    -21.46381   0.0306  691.  536.   -21.48972
 109400   43.76    -21.46392   0.0323  690.  567.   -21.49288
 109600   43.84    -21.46403   0.0333  690.  584.   -21.49594
 109800   43.92    -21.46417   0.0244  690.  428.   -21.49888
 110000   44.00    -21.46430   0.0431  690.  756.   -21.50160
block <Epot> / <T> :     -21.52242  658.     drift:  0.10D-01   Tbath : 300.
 110200   44.08    -21.46441   0.0467  690.  820.   -21.46138
 110400   44.16    -21.46447   0.0312  690.  547.   -21.46508
 110600   44.24    -21.46453   0.0253  690.  445.   -21.46743
 110800   44.32    -21.46461   0.0412  690.  722.   -21.47099
 111000   44.40    -21.46470   0.0487  690.  855.   -21.47583
 111200   44.48    -21.46480   0.0371  690.  651.   -21.47999
 111400   44.56    -21.46490   0.0333  690.  585.   -21.48422
 111600   44.64    -21.46500   0.0363  690.  637.   -21.48662
 111800   44.72    -21.46509   0.0300  690.  527.   -21.48910
 112000   44.80    -21.46521   0.0405  690.  710.   -21.49140
 112200   44.88    -21.46533   0.0408  690.  715.   -21.49590
 112400   44.96    -21.46548   0.0518  690.  909.   -21.50017
 112600   45.04    -21.46561   0.0476  690.  835.   -21.47301
 112800   45.12    -21.46568   0.0551  690.  967.   -21.46573
 113000   45.20    -21.46580   0.0721  691. 1264.   -21.47474
 113200   45.28    -21.46593   0.0449  692.  788.   -21.47735
 113400   45.36    -21.46602   0.0298  691.  523.   -21.48385
 113600   45.44    -21.46611   0.0359  691.  629.   -21.48588
 113800   45.52    -21.46620   0.0313  691.  549.   -21.48920
 114000   45.60    -21.46631   0.0517  691.  908.   -21.49134
 114200   45.68    -21.46645   0.0473  691.  829.   -21.49786
 114400   45.76    -21.46657   0.0289  691.  506.   -21.50173
 114600   45.84    -21.46668   0.0238  691.  418.   -21.50311
 114800   45.92    -21.46679   0.0306  690.  537.   -21.50496
 115000   46.00    -21.46693   0.0417  690.  731.   -21.50922
block <Epot> / <T> :     -21.52472  697.     drift:  0.46D-02   Tbath : 300.
 115200   46.08    -21.46703   0.0531  690.  931.   -21.46818
 115400   46.16    -21.46714   0.0504  691.  883.   -21.47418
 115600   46.24    -21.46725   0.0532  691.  934.   -21.48035
 115800   46.32    -21.46734   0.0304  691.  534.   -21.48323
 116000   46.40    -21.46745   0.0508  691.  891.   -21.48761
 116200   46.48    -21.46755   0.0358  691.  628.   -21.49185
 116400   46.56    -21.46766   0.0302  691.  530.   -21.49508
 116600   46.64    -21.46774   0.0177  691.  310.   -21.49583
 116800   46.72    -21.46782   0.0162  690.  284.   -21.49618
 117000   46.80    -21.46791   0.0330  690.  579.   -21.49767
 117200   46.88    -21.46803   0.0366  690.  641.   -21.50028
 117400   46.96    -21.46815   0.0377  690.  662.   -21.50415
 117600   47.04    -21.46825   0.0234  689.  411.   -21.47436
 117800   47.12    -21.46830   0.0618  689. 1084.   -21.46138
 118000   47.20    -21.46840   0.0575  690. 1009.   -21.46785
 118200   47.28    -21.46846   0.0122  690.  214.   -21.47162
 118400   47.36    -21.46849   0.0231  689.  405.   -21.47102
 118600   47.44    -21.46855   0.0482  689.  845.   -21.47355
 118800   47.52    -21.46865   0.0431  689.  757.   -21.47917
 119000   47.60    -21.46871   0.0105  688.  184.   -21.48022
 119200   47.68    -21.46877   0.0404  688.  709.   -21.48235
 119400   47.76    -21.46887   0.0397  688.  697.   -21.48683
 119600   47.84    -21.46895   0.0191  688.  335.   -21.48755
 119800   47.92    -21.46901   0.0252  687.  441.   -21.48821
 120000   48.00    -21.46909   0.0417  687.  731.   -21.49026
block <Epot> / <T> :     -21.51878  608.     drift:  0.33D-02   Tbath : 300.
 120200   48.08    -21.46916   0.0357  687.  627.   -21.44986
 120400   48.16    -21.46917   0.0189  687.  332.   -21.45221
 120600   48.24    -21.46920   0.0535  686.  938.   -21.45410
 120800   48.32    -21.46925   0.0296  687.  520.   -21.45876
 121000   48.40    -21.46928   0.0307  686.  539.   -21.46022
 121200   48.48    -21.46930   0.0112  686.  196.   -21.46050
 121400   48.56    -21.46934   0.0416  685.  730.   -21.46357
 121600   48.64    -21.46939   0.0415  685.  728.   -21.46643
 121800   48.72    -21.46945   0.0417  685.  732.   -21.46946
 122000   48.80    -21.46950   0.0272  685.  477.   -21.47130
 122200   48.88    -21.46955   0.0282  685.  494.   -21.47323
 122400   48.96    -21.46960   0.0280  684.  491.   -21.47573
 122600   49.04    -21.46966   0.0392  684.  687.   -21.44711
 122800   49.12    -21.46969   0.0396  684.  694.   -21.43982
 123000   49.20    -21.46972   0.0284  685.  497.   -21.44555
 123200   49.28    -21.46976   0.0416  685.  729.   -21.44970
 123400   49.36    -21.46979   0.0329  685.  578.   -21.45254
 123600   49.44    -21.46983   0.0512  685.  898.   -21.45525
 123800   49.52    -21.46988   0.0370  685.  650.   -21.45966
 124000   49.60    -21.46993   0.0428  685.  750.   -21.46465
 124200   49.68    -21.46999   0.0382  685.  670.   -21.46718
 124400   49.76    -21.47003   0.0405  685.  711.   -21.46860
 124600   49.84    -21.47010   0.0378  685.  663.   -21.47231
 124800   49.92    -21.47016   0.0255  685.  447.   -21.47732
 average properties 
 Epot               :  -21.4702188957546     
 Epot (accurate SCC):  -21.4703869468901     
 Ekin               :  3.900875073605554E-002
 Etot               :  -21.4312101450186     
 T                  :   684.333380095048     
 thermostating problem
 normal exit of md()

------------------------------------------------------------------------
 * finished run on 2021/03/15 at 00:21:47.783     
------------------------------------------------------------------------
 total:
 * wall-time:     0 d,  0 h, 24 min, 38.874 sec
 *  cpu-time:     0 d,  0 h, 24 min, 18.200 sec
 * ratio c/w:     0.986 speedup
 SCF:
 * wall-time:     0 d,  0 h,  0 min,  0.731 sec
 *  cpu-time:     0 d,  0 h,  0 min,  0.028 sec
 * ratio c/w:     0.038 speedup
 MD:
 * wall-time:     0 d,  0 h, 24 min, 37.009 sec
 *  cpu-time:     0 d,  0 h, 24 min, 18.140 sec
 * ratio c/w:     0.987 speedup

