      -----------------------------------------------------------      
     |                   =====================                   |     
     |                           x T B                           |     
     |                   =====================                   |     
     |                         S. Grimme                         |     
     |          Mulliken Center for Theoretical Chemistry        |     
     |                    University of Bonn                     |     
     |                 Version 6.1.4 (SAW190525)                 |     
      -----------------------------------------------------------      

   This program is distributed in the hope that it will be useful,
   but WITHOUT ANY WARRANTY; without even the implied warranty of
   MERCHANTABILITY or FITNESS FOR A PARTICULAR PURPOSE.
   
   FOR NON-COMMERCIAL, ACADEMIA USE ONLY.
   
   Cite this work as:
   S. Grimme, C. Bannwarth, P. Shushkov, J. Comput. Theory Chem., 2017,
   13, 1989-2009. DOI: 10.1021/acs.jctc.7b00118
   C. Bannwarth, S. Ehlert and S. Grimme., J. Comput. Theory Chem., 2019,
   just accepted. DOI: 10.1021/acs.jctc.8b01176
   
   for sTDA-xTB:
   S. Grimme and C. Bannwarth, J. Chem. Phys., 2016, 145, 054103.
   DOI: 10.1063/1.4959605
   
   in the mass-spec context:
   V. Asgeirsson, C. Bauer and S. Grimme, Chem. Sci., 2017, 8, 4879.
   DOI: 10.1039/c7sc00601b
   
   for metadynamics refer to:
   S. Grimme, J. Chem. Theory Comput. Article ASAP, 2019,
   DOI: 10.1021/acs.jctc.9b00143
   
   with help from (in alphabetical order)
   C. Bannwarth, F. Bohle, G. Brandenburg, E. Caldeweyher, M. Checinski,
   S. Dohm, S. Ehlert, S. Ehrlich, F. März, H. Neugebauer, J. Pisarek,
   P. Pracht, P. Shushkov, and S. Spicher.
   
 * started run on 2021/06/02 at 10:00:07.164     

           -------------------------------------------------
          |                Calculation Setup                |
           -------------------------------------------------

          program call               : /groups/kemi/koerstz/opt/xtb/6.1/bin/xtb 1.xyz --gfn2 --acc 0.2 --chrg 0
          hostname                   : node305
          coordinate file            : 1.xyz
          omp threads                :                     1
          number of atoms            :                     9
          number of electrons        :                    36
          charge                     :                     0
          spin                       :                   0.0
          first test random number   :      0.79984965873287


########################################################################
# WARNING! Please study the warnings concerning your input carefully
#  - XTBPATH is not set, using XTBHOME instead
########################################################################

           ------------------------------------------------- 
          |                 G F N 2 - x T B                 |
          | Geometry, Frequencies, Noncovalent interactions |
          |            JCTC 2018 parametrisation            |
           ------------------------------------------------- 
             k(s)              :                1.8500
             k(p)              :                2.2300
             k(d)              :                2.2300
             k(f)              :                2.0000
             kEN (H0ij)        :               -2.0000
             D4 a1             :                0.5200
             D4 a2             :                5.0000
             D4 s6             :                1.0000
             D4 s8             :                2.7000
             D4 s9             :                5.0000
             alphaj            :                2.0000

  Z AO/shell   Hii/eV     exponent
  1     Wed Apr 25 08:07:45 CEST 2018   EN: 2.200 GM2: 0.406  GM3: 0.0800  RAES: 1.40
     1s    -10.707211    1.230000
  6     Wed Apr 25 08:07:45 CEST 2018   EN: 2.550 GM2: 0.538  GM3: 0.1500  RAES: 3.00
     2s    -13.970922    2.096432
     2p    -10.063292    1.800000
  7     Wed Apr 25 08:07:45 CEST 2018   EN: 3.040 GM2: 0.461  GM3:-0.0640  RAES: 1.90
     2s    -16.686243    2.339881
     2p    -12.523956    2.014332
  8     Wed Apr 25 08:07:45 CEST 2018   EN: 3.440 GM2: 0.452  GM3:-0.0517  RAES: 1.80
     2s    -20.229985    2.439742
     2p    -15.503117    2.137023


            Z     q(EN)     CN     RAES       Cart. coordinates
     1  N   5.0   -0.46    2.00    1.90    -1.43027     1.01953    -0.99914
     2  C   4.0    0.30    3.03    3.02    -0.31217    -0.94977    -0.29775
     3  N   5.0   -0.04    2.47    1.90    -1.31105    -3.44126    -0.79868
     4  N   5.0   -0.19    1.00    1.90    -3.00071    -4.39380    -1.71619
     5  O   6.0   -0.04    1.47    1.80     1.19035    -5.23624     0.68514
     6  N   5.0   -0.19    2.03    1.90     2.68408    -3.53408     1.47213
     7  C   4.0    0.12    3.04    3.02     2.03548    -1.22548     1.03700
     8  H   1.0    0.33    1.00    1.43    -3.09269     0.79107    -1.93510
     9  H   1.0    0.17    1.00    1.43     3.19177     0.31784     1.64991

           ------------------------------------------------- 
          |        Self-Consistent Charge Iterations        |
           ------------------------------------------------- 
q/qsh data taken from xtbrestart
CAMM data taken from xtbrestart

          ...................................................
          :                      SETUP                      :
          :.................................................:
          :  # basis functions                  30          :
          :  # atomic orbitals                  30          :
          :  # shells                           16          :
          :  # electrons                        36          :
          :  max. iterations                   250          :
          :  Hamiltonian                  GFN2-xTB          :
          :  restarted?                       true          :
          :  GBSA solvation                  false          :
          :  PC potential                    false          :
          :  electronic temp.          300.0000000     K    :
          :  accuracy                    0.2000000          :
          :  -> integral cutoff          0.3198970E+02      :
          :  -> integral neglect         0.2000000E-08      :
          :  -> SCF convergence          0.2000000E-06 Eh   :
          :  -> wf. convergence          0.2000000E-04 e    :
          :  Broyden damping             0.4000000          :
          ...................................................

 iter      E             dE          RMSdq      gap      omega  full diag
   1    -21.0644615 -0.210645E+02  0.665E+00    2.03       0.0  T
   2    -21.0832462 -0.187846E-01  0.372E+00    1.18       1.0  T
   3    -21.0648460  0.184001E-01  0.262E+00    1.30       1.0  T
   4    -21.0981083 -0.332622E-01  0.569E-01    0.77       1.0  T
   5    -21.1000008 -0.189249E-02  0.243E-01    0.81       1.0  T
   6    -21.1000358 -0.349919E-04  0.127E-01    0.79       1.0  T
   7    -21.1001082 -0.724037E-04  0.449E-02    0.80       1.0  T
   8    -21.1001132 -0.504453E-05  0.209E-02    0.79       1.6  T
   9    -21.1001140 -0.815502E-06  0.924E-03    0.80       3.6  T
  10    -21.1001143 -0.257658E-06  0.375E-03    0.80       8.9  T
  11    -21.1001143 -0.417867E-07  0.159E-03    0.80      20.9  T
  12    -21.1001143 -0.289107E-08  0.276E-04    0.80     120.8  T
  13    -21.1001143 -0.155289E-10  0.128E-04    0.80     261.1  T
  14    -21.1001143 -0.544595E-10  0.221E-05    0.80    1509.6  T

   *** convergence criteria satisfied after 14 iterations ***

         #    Occupation            Energy/Eh            Energy/eV
      -------------------------------------------------------------
         1        2.0000           -0.7592752             -20.6609
       ...           ...                  ...                  ...
        12        2.0000           -0.5393715             -14.6770
        13        2.0000           -0.5327045             -14.4956
        14        2.0000           -0.5023697             -13.6702
        15        2.0000           -0.4944050             -13.4534
        16        2.0000           -0.4562235             -12.4145
        17        2.0000           -0.4404509             -11.9853
        18        2.0000           -0.3979963             -10.8300 (HOMO)
        19        0.0000           -0.3686986             -10.0328 (LUMO)
        20                         -0.2933889              -7.9835
        21                         -0.2856389              -7.7726
        22                         -0.1992903              -5.4230
        23                         -0.0076569              -0.2084
       ...                                ...                  ...
        30                          0.7390195              20.1097
      -------------------------------------------------------------
                  HL-Gap            0.0292977 Eh            0.7972 eV
             Fermi-level           -0.3833475 Eh          -10.4314 eV

 SCC (total)                   0 d,  0 h,  0 min,  0.008 sec
 SCC setup                      ...        0 min,  0.000 sec (  1.754%)
 Dispersion                     ...        0 min,  0.000 sec (  0.909%)
 integral evaluation            ...        0 min,  0.001 sec ( 14.021%)
 zeroth order Hamiltonian       ...        0 min,  0.000 sec (  0.403%)
 iterations                     ...        0 min,  0.004 sec ( 53.785%)
 molecular gradient             ...        0 min,  0.002 sec ( 26.300%)
 printout                       ...        0 min,  0.000 sec (  2.323%)

         :::::::::::::::::::::::::::::::::::::::::::::::::::::
         ::                     SUMMARY                     ::
         :::::::::::::::::::::::::::::::::::::::::::::::::::::
         :: total energy              -20.867209573268 Eh   ::
         :: gradient norm               0.002925863018 Eh/α ::
         :: HOMO-LUMO gap               0.797231210768 eV   ::
         ::.................................................::
         :: SCC energy                -21.100114338279 Eh   ::
         :: -> isotropic ES             0.027590493957 Eh   ::
         :: -> anisotropic ES           0.003476480427 Eh   ::
         :: -> anisotropic XC           0.029913469774 Eh   ::
         :: -> dispersion              -0.006054857254 Eh   ::
         :: repulsion energy            0.232901648772 Eh   ::
         :: add. restraining            0.000000000000 Eh   ::
         :::::::::::::::::::::::::::::::::::::::::::::::::::::

           -------------------------------------------------
          |                Property Printout                |
           -------------------------------------------------

    * Orbital Energies and Occupations

         #    Occupation            Energy/Eh            Energy/eV
      -------------------------------------------------------------
         1        2.0000           -0.7592752             -20.6609
       ...           ...                  ...                  ...
         6        2.0000           -0.6534728             -17.7819
         7        2.0000           -0.6258952             -17.0315
         8        2.0000           -0.6165412             -16.7769
         9        2.0000           -0.5841175             -15.8946
        10        2.0000           -0.5788024             -15.7500
        11        2.0000           -0.5541065             -15.0780
        12        2.0000           -0.5393715             -14.6770
        13        2.0000           -0.5327045             -14.4956
        14        2.0000           -0.5023697             -13.6702
        15        2.0000           -0.4944050             -13.4534
        16        2.0000           -0.4562235             -12.4145
        17        2.0000           -0.4404509             -11.9853
        18        2.0000           -0.3979963             -10.8300 (HOMO)
        19        0.0000           -0.3686986             -10.0328 (LUMO)
        20                         -0.2933889              -7.9835
        21                         -0.2856389              -7.7726
        22                         -0.1992903              -5.4230
        23                         -0.0076569              -0.2084
        24                          0.0508579               1.3839
        25                          0.0914946               2.4897
        26                          0.2169814               5.9044
        27                          0.3177339               8.6460
        28                          0.4080547              11.1037
        29                          0.5524732              15.0336
        30                          0.7390195              20.1097
      -------------------------------------------------------------
                  HL-Gap            0.0292977 Eh            0.7972 eV
             Fermi-level           -0.3833475 Eh          -10.4314 eV

   #   Z        covCN         q      C6AA      α(0)
   1   7 N      1.778    -0.271    27.855     7.816
   2   6 C      2.828     0.163    24.471     8.106
   3   7 N      2.323     0.216    17.855     6.273
   4   7 N      0.985    -0.133    23.502     6.972
   5   8 O      1.358    -0.271    18.859     5.844
   6   7 N      1.860     0.034    21.326     6.845
   7   6 C      2.858    -0.001    28.045     8.680
   8   1 H      0.860     0.179     1.221     1.731
   9   1 H      0.926     0.084     1.938     2.177

 Mol. C6AA /au·bohr⁶  :       1295.034985
 Mol. C8AA /au·bohr⁸  :      29606.945424
 Mol. α(0) /au        :         54.445234


Wiberg/Mayer (AO) data.
largest (>0.10) Wiberg bond orders for each atom
          total WBO             WBO to atom ...
     1  N   3.109        C    2 1.792    H    8 0.935    N    4 0.120
     2  C   3.953        N    1 1.792    C    7 1.123    N    3 0.918
     3  N   3.782        N    4 2.310    C    2 0.918    O    5 0.380
     4  N   2.829        N    3 2.310    O    5 0.266    N    1 0.120
     5  O   2.271        N    6 1.312    N    3 0.380    N    4 0.266    C    7 0.177
     6  N   3.220        C    7 1.625    O    5 1.312
     7  C   3.968        N    6 1.625    C    2 1.123    H    9 0.959    O    5 0.177
     8  H   0.968        N    1 0.935
     9  H   0.993        C    7 0.959

molecular dipole:
                 x           y           z       tot (Debye)
 q only:       -0.067       0.879      -0.067
   full:       -0.222       0.880      -0.154       2.340
molecular quadrupole (traceless):
                xx          xy          yy          xz          yz          zz
 q only:        4.410       1.031      -7.734       0.889       0.725       3.324
  q+dip:        5.081       1.061     -10.078       0.132       0.881       4.997
   full:        4.653       0.873     -10.965      -1.309       0.867       6.312


           -------------------------------------------------
          | TOTAL ENERGY              -20.867209573268 Eh   |
          | GRADIENT NORM               0.002925863018 Eh/α |
          | HOMO-LUMO GAP               0.797231210768 eV   |
           -------------------------------------------------

------------------------------------------------------------------------
 * finished run on 2021/06/02 at 10:00:07.181     
------------------------------------------------------------------------
 total:
 * wall-time:     0 d,  0 h,  0 min,  0.016 sec
 *  cpu-time:     0 d,  0 h,  0 min,  0.016 sec
 * ratio c/w:     0.987 speedup
 SCF:
 * wall-time:     0 d,  0 h,  0 min,  0.008 sec
 *  cpu-time:     0 d,  0 h,  0 min,  0.008 sec
 * ratio c/w:     1.000 speedup

