      -----------------------------------------------------------      
     |                   =====================                   |     
     |                           x T B                           |     
     |                   =====================                   |     
     |                         S. Grimme                         |     
     |          Mulliken Center for Theoretical Chemistry        |     
     |                    University of Bonn                     |     
     |                 Version 6.1.4 (SAW190525)                 |     
      -----------------------------------------------------------      

   This program is distributed in the hope that it will be useful,
   but WITHOUT ANY WARRANTY; without even the implied warranty of
   MERCHANTABILITY or FITNESS FOR A PARTICULAR PURPOSE.
   
   FOR NON-COMMERCIAL, ACADEMIA USE ONLY.
   
   Cite this work as:
   S. Grimme, C. Bannwarth, P. Shushkov, J. Comput. Theory Chem., 2017,
   13, 1989-2009. DOI: 10.1021/acs.jctc.7b00118
   C. Bannwarth, S. Ehlert and S. Grimme., J. Comput. Theory Chem., 2019,
   just accepted. DOI: 10.1021/acs.jctc.8b01176
   
   for sTDA-xTB:
   S. Grimme and C. Bannwarth, J. Chem. Phys., 2016, 145, 054103.
   DOI: 10.1063/1.4959605
   
   in the mass-spec context:
   V. Asgeirsson, C. Bauer and S. Grimme, Chem. Sci., 2017, 8, 4879.
   DOI: 10.1039/c7sc00601b
   
   for metadynamics refer to:
   S. Grimme, J. Chem. Theory Comput. Article ASAP, 2019,
   DOI: 10.1021/acs.jctc.9b00143
   
   with help from (in alphabetical order)
   C. Bannwarth, F. Bohle, G. Brandenburg, E. Caldeweyher, M. Checinski,
   S. Dohm, S. Ehlert, S. Ehrlich, F. März, H. Neugebauer, J. Pisarek,
   P. Pracht, P. Shushkov, and S. Spicher.
   
 * started run on 2021/06/02 at 10:00:07.778     

           -------------------------------------------------
          |                Calculation Setup                |
           -------------------------------------------------

          program call               : /groups/kemi/koerstz/opt/xtb/6.1/bin/xtb 10.xyz --gfn2 --acc 0.2 --chrg 0
          hostname                   : node305
          coordinate file            : 10.xyz
          omp threads                :                     1
          number of atoms            :                     9
          number of electrons        :                    36
          charge                     :                     0
          spin                       :                   0.0
          first test random number   :      0.94263627106514


########################################################################
# WARNING! Please study the warnings concerning your input carefully
#  - XTBPATH is not set, using XTBHOME instead
########################################################################

           ------------------------------------------------- 
          |                 G F N 2 - x T B                 |
          | Geometry, Frequencies, Noncovalent interactions |
          |            JCTC 2018 parametrisation            |
           ------------------------------------------------- 
             k(s)              :                1.8500
             k(p)              :                2.2300
             k(d)              :                2.2300
             k(f)              :                2.0000
             kEN (H0ij)        :               -2.0000
             D4 a1             :                0.5200
             D4 a2             :                5.0000
             D4 s6             :                1.0000
             D4 s8             :                2.7000
             D4 s9             :                5.0000
             alphaj            :                2.0000

  Z AO/shell   Hii/eV     exponent
  1     Wed Apr 25 08:07:45 CEST 2018   EN: 2.200 GM2: 0.406  GM3: 0.0800  RAES: 1.40
     1s    -10.707211    1.230000
  6     Wed Apr 25 08:07:45 CEST 2018   EN: 2.550 GM2: 0.538  GM3: 0.1500  RAES: 3.00
     2s    -13.970922    2.096432
     2p    -10.063292    1.800000
  7     Wed Apr 25 08:07:45 CEST 2018   EN: 3.040 GM2: 0.461  GM3:-0.0640  RAES: 1.90
     2s    -16.686243    2.339881
     2p    -12.523956    2.014332
  8     Wed Apr 25 08:07:45 CEST 2018   EN: 3.440 GM2: 0.452  GM3:-0.0517  RAES: 1.80
     2s    -20.229985    2.439742
     2p    -15.503117    2.137023


            Z     q(EN)     CN     RAES       Cart. coordinates
     1  N   5.0   -0.46    2.00    1.90    -1.24967     1.05420    -1.26354
     2  C   4.0    0.30    3.03    3.02    -0.38801    -0.93607    -0.25855
     3  N   5.0   -0.05    2.38    1.90    -1.42947    -3.42380    -0.69920
     4  N   5.0   -0.18    1.00    1.90    -3.27930    -4.52154    -0.77684
     5  O   6.0   -0.05    1.38    1.80     1.53454    -5.15475    -0.05859
     6  N   5.0   -0.19    2.03    1.90     2.80073    -3.53072     1.15508
     7  C   4.0    0.12    3.04    3.02     1.89597    -1.25405     1.20487
     8  H   1.0    0.33    1.00    1.43    -2.76532     0.85998    -2.42391
     9  H   1.0    0.17    0.99    1.43     2.83532     0.25454     2.21800

           ------------------------------------------------- 
          |        Self-Consistent Charge Iterations        |
           ------------------------------------------------- 
q/qsh data taken from xtbrestart
CAMM data taken from xtbrestart

          ...................................................
          :                      SETUP                      :
          :.................................................:
          :  # basis functions                  30          :
          :  # atomic orbitals                  30          :
          :  # shells                           16          :
          :  # electrons                        36          :
          :  max. iterations                   250          :
          :  Hamiltonian                  GFN2-xTB          :
          :  restarted?                       true          :
          :  GBSA solvation                  false          :
          :  PC potential                    false          :
          :  electronic temp.          300.0000000     K    :
          :  accuracy                    0.2000000          :
          :  -> integral cutoff          0.3198970E+02      :
          :  -> integral neglect         0.2000000E-08      :
          :  -> SCF convergence          0.2000000E-06 Eh   :
          :  -> wf. convergence          0.2000000E-04 e    :
          :  Broyden damping             0.4000000          :
          ...................................................

 iter      E             dE          RMSdq      gap      omega  full diag
   1    -21.0814075 -0.210814E+02  0.115E+00    0.78       0.0  T
   2    -21.0819474 -0.539898E-03  0.604E-01    0.75       1.0  T
   3    -21.0814245  0.522981E-03  0.299E-01    0.80       1.0  T
   4    -21.0821879 -0.763475E-03  0.615E-02    0.74       1.0  T
   5    -21.0821946 -0.671285E-05  0.359E-02    0.75       1.0  T
   6    -21.0822010 -0.636848E-05  0.904E-03    0.75       3.7  T
   7    -21.0822011 -0.123784E-06  0.407E-03    0.75       8.2  T
   8    -21.0822011 -0.362317E-08  0.120E-03    0.75      27.9  T
   9    -21.0822011 -0.957739E-08  0.444E-04    0.75      75.2  T
  10    -21.0822011 -0.186350E-09  0.213E-04    0.75     156.4  T
  11    -21.0822011 -0.123922E-09  0.626E-05    0.75     532.7  T
  12    -21.0822011 -0.108358E-10  0.292E-05    0.75    1142.9  T

   *** convergence criteria satisfied after 12 iterations ***

         #    Occupation            Energy/Eh            Energy/eV
      -------------------------------------------------------------
         1        2.0000           -0.7560535             -20.5733
       ...           ...                  ...                  ...
        12        2.0000           -0.5403426             -14.7035
        13        2.0000           -0.5286938             -14.3865
        14        2.0000           -0.5034669             -13.7000
        15        2.0000           -0.4972342             -13.5304
        16        2.0000           -0.4553554             -12.3909
        17        2.0000           -0.4359486             -11.8628
        18        2.0000           -0.3961735             -10.7804 (HOMO)
        19        0.0000           -0.3687397             -10.0339 (LUMO)
        20                         -0.2982058              -8.1146
        21                         -0.2933650              -7.9829
        22                         -0.2135282              -5.8104
        23                         -0.0139627              -0.3799
       ...                                ...                  ...
        30                          0.7094647              19.3055
      -------------------------------------------------------------
                  HL-Gap            0.0274338 Eh            0.7465 eV
             Fermi-level           -0.3824566 Eh          -10.4072 eV

 SCC (total)                   0 d,  0 h,  0 min,  0.007 sec
 SCC setup                      ...        0 min,  0.000 sec (  1.779%)
 Dispersion                     ...        0 min,  0.000 sec (  0.792%)
 integral evaluation            ...        0 min,  0.001 sec ( 15.405%)
 zeroth order Hamiltonian       ...        0 min,  0.000 sec (  0.440%)
 iterations                     ...        0 min,  0.004 sec ( 51.752%)
 molecular gradient             ...        0 min,  0.002 sec ( 27.186%)
 printout                       ...        0 min,  0.000 sec (  2.187%)

         :::::::::::::::::::::::::::::::::::::::::::::::::::::
         ::                     SUMMARY                     ::
         :::::::::::::::::::::::::::::::::::::::::::::::::::::
         :: total energy              -20.858812781842 Eh   ::
         :: gradient norm               0.031406203509 Eh/α ::
         :: HOMO-LUMO gap               0.746511888704 eV   ::
         ::.................................................::
         :: SCC energy                -21.082201144216 Eh   ::
         :: -> isotropic ES             0.028544119015 Eh   ::
         :: -> anisotropic ES           0.003297605455 Eh   ::
         :: -> anisotropic XC           0.030801415731 Eh   ::
         :: -> dispersion              -0.006068692015 Eh   ::
         :: repulsion energy            0.223384665310 Eh   ::
         :: add. restraining            0.000000000000 Eh   ::
         :::::::::::::::::::::::::::::::::::::::::::::::::::::

           -------------------------------------------------
          |                Property Printout                |
           -------------------------------------------------

    * Orbital Energies and Occupations

         #    Occupation            Energy/Eh            Energy/eV
      -------------------------------------------------------------
         1        2.0000           -0.7560535             -20.5733
       ...           ...                  ...                  ...
         6        2.0000           -0.6501611             -17.6918
         7        2.0000           -0.6275865             -17.0775
         8        2.0000           -0.6115052             -16.6399
         9        2.0000           -0.5840886             -15.8939
        10        2.0000           -0.5770693             -15.7029
        11        2.0000           -0.5523679             -15.0307
        12        2.0000           -0.5403426             -14.7035
        13        2.0000           -0.5286938             -14.3865
        14        2.0000           -0.5034669             -13.7000
        15        2.0000           -0.4972342             -13.5304
        16        2.0000           -0.4553554             -12.3909
        17        2.0000           -0.4359486             -11.8628
        18        2.0000           -0.3961735             -10.7804 (HOMO)
        19        0.0000           -0.3687397             -10.0339 (LUMO)
        20                         -0.2982058              -8.1146
        21                         -0.2933650              -7.9829
        22                         -0.2135282              -5.8104
        23                         -0.0139627              -0.3799
        24                          0.0476990               1.2980
        25                          0.0907314               2.4689
        26                          0.2038799               5.5479
        27                          0.3115107               8.4766
        28                          0.3911873              10.6447
        29                          0.5335198              14.5178
        30                          0.7094647              19.3055
      -------------------------------------------------------------
                  HL-Gap            0.0274338 Eh            0.7465 eV
             Fermi-level           -0.3824566 Eh          -10.4072 eV

   #   Z        covCN         q      C6AA      α(0)
   1   7 N      1.776    -0.273    27.915     7.824
   2   6 C      2.825     0.166    24.416     8.097
   3   7 N      2.240     0.209    18.069     6.309
   4   7 N      0.984    -0.115    23.130     6.918
   5   8 O      1.275    -0.281    19.155     5.883
   6   7 N      1.858     0.035    21.310     6.842
   7   6 C      2.857    -0.002    28.072     8.684
   8   1 H      0.860     0.177     1.234     1.740
   9   1 H      0.925     0.084     1.937     2.176

 Mol. C6AA /au·bohr⁶  :       1296.921783
 Mol. C8AA /au·bohr⁸  :      29644.047970
 Mol. α(0) /au        :         54.473164


Wiberg/Mayer (AO) data.
largest (>0.10) Wiberg bond orders for each atom
          total WBO             WBO to atom ...
     1  N   3.105        C    2 1.798    H    8 0.937    N    4 0.101
     2  C   3.948        N    1 1.798    C    7 1.110    N    3 0.919
     3  N   3.773        N    4 2.330    C    2 0.919    O    5 0.349
     4  N   2.856        N    3 2.330    O    5 0.264    N    1 0.101
     5  O   2.254        N    6 1.323    N    3 0.349    N    4 0.264    C    7 0.181
     6  N   3.221        C    7 1.611    O    5 1.323
     7  C   3.965        N    6 1.611    C    2 1.110    H    9 0.957    O    5 0.181
     8  H   0.969        N    1 0.937
     9  H   0.993        C    7 0.957

molecular dipole:
                 x           y           z       tot (Debye)
 q only:       -0.233       0.857       0.058
   full:       -0.419       0.872      -0.063       2.464
molecular quadrupole (traceless):
                xx          xy          yy          xz          yz          zz
 q only:        3.343       1.901      -7.701       2.022      -0.062       4.358
  q+dip:        3.356       1.876     -10.196       2.090       0.408       6.840
   full:        2.887       1.625     -11.091       1.050       0.489       8.204


           -------------------------------------------------
          | TOTAL ENERGY              -20.858812781842 Eh   |
          | GRADIENT NORM               0.031406203509 Eh/α |
          | HOMO-LUMO GAP               0.746511888704 eV   |
           -------------------------------------------------

------------------------------------------------------------------------
 * finished run on 2021/06/02 at 10:00:07.794     
------------------------------------------------------------------------
 total:
 * wall-time:     0 d,  0 h,  0 min,  0.015 sec
 *  cpu-time:     0 d,  0 h,  0 min,  0.015 sec
 * ratio c/w:     0.985 speedup
 SCF:
 * wall-time:     0 d,  0 h,  0 min,  0.007 sec
 *  cpu-time:     0 d,  0 h,  0 min,  0.007 sec
 * ratio c/w:     1.000 speedup

