      -----------------------------------------------------------      
     |                   =====================                   |     
     |                           x T B                           |     
     |                   =====================                   |     
     |                         S. Grimme                         |     
     |          Mulliken Center for Theoretical Chemistry        |     
     |                    University of Bonn                     |     
     |                 Version 6.1.4 (SAW190525)                 |     
      -----------------------------------------------------------      

   This program is distributed in the hope that it will be useful,
   but WITHOUT ANY WARRANTY; without even the implied warranty of
   MERCHANTABILITY or FITNESS FOR A PARTICULAR PURPOSE.
   
   FOR NON-COMMERCIAL, ACADEMIA USE ONLY.
   
   Cite this work as:
   S. Grimme, C. Bannwarth, P. Shushkov, J. Comput. Theory Chem., 2017,
   13, 1989-2009. DOI: 10.1021/acs.jctc.7b00118
   C. Bannwarth, S. Ehlert and S. Grimme., J. Comput. Theory Chem., 2019,
   just accepted. DOI: 10.1021/acs.jctc.8b01176
   
   for sTDA-xTB:
   S. Grimme and C. Bannwarth, J. Chem. Phys., 2016, 145, 054103.
   DOI: 10.1063/1.4959605
   
   in the mass-spec context:
   V. Asgeirsson, C. Bauer and S. Grimme, Chem. Sci., 2017, 8, 4879.
   DOI: 10.1039/c7sc00601b
   
   for metadynamics refer to:
   S. Grimme, J. Chem. Theory Comput. Article ASAP, 2019,
   DOI: 10.1021/acs.jctc.9b00143
   
   with help from (in alphabetical order)
   C. Bannwarth, F. Bohle, G. Brandenburg, E. Caldeweyher, M. Checinski,
   S. Dohm, S. Ehlert, S. Ehrlich, F. März, H. Neugebauer, J. Pisarek,
   P. Pracht, P. Shushkov, and S. Spicher.
   
 * started run on 2021/06/02 at 10:00:08.015     

           -------------------------------------------------
          |                Calculation Setup                |
           -------------------------------------------------

          program call               : /groups/kemi/koerstz/opt/xtb/6.1/bin/xtb 12.xyz --gfn2 --acc 0.2 --chrg 0
          hostname                   : node305
          coordinate file            : 12.xyz
          omp threads                :                     1
          number of atoms            :                     9
          number of electrons        :                    36
          charge                     :                     0
          spin                       :                   0.0
          first test random number   :      0.37725068492177


########################################################################
# WARNING! Please study the warnings concerning your input carefully
#  - XTBPATH is not set, using XTBHOME instead
########################################################################

           ------------------------------------------------- 
          |                 G F N 2 - x T B                 |
          | Geometry, Frequencies, Noncovalent interactions |
          |            JCTC 2018 parametrisation            |
           ------------------------------------------------- 
             k(s)              :                1.8500
             k(p)              :                2.2300
             k(d)              :                2.2300
             k(f)              :                2.0000
             kEN (H0ij)        :               -2.0000
             D4 a1             :                0.5200
             D4 a2             :                5.0000
             D4 s6             :                1.0000
             D4 s8             :                2.7000
             D4 s9             :                5.0000
             alphaj            :                2.0000

  Z AO/shell   Hii/eV     exponent
  1     Wed Apr 25 08:07:45 CEST 2018   EN: 2.200 GM2: 0.406  GM3: 0.0800  RAES: 1.40
     1s    -10.707211    1.230000
  6     Wed Apr 25 08:07:45 CEST 2018   EN: 2.550 GM2: 0.538  GM3: 0.1500  RAES: 3.00
     2s    -13.970922    2.096432
     2p    -10.063292    1.800000
  7     Wed Apr 25 08:07:45 CEST 2018   EN: 3.040 GM2: 0.461  GM3:-0.0640  RAES: 1.90
     2s    -16.686243    2.339881
     2p    -12.523956    2.014332
  8     Wed Apr 25 08:07:45 CEST 2018   EN: 3.440 GM2: 0.452  GM3:-0.0517  RAES: 1.80
     2s    -20.229985    2.439742
     2p    -15.503117    2.137023


            Z     q(EN)     CN     RAES       Cart. coordinates
     1  N   5.0   -0.46    2.00    1.90    -1.26204     1.04211    -1.25235
     2  C   4.0    0.30    3.02    3.02    -0.38773    -0.94297    -0.24324
     3  N   5.0   -0.05    2.32    1.90    -1.41995    -3.43643    -0.74041
     4  N   5.0   -0.17    1.00    1.90    -3.29033    -4.49228    -0.84553
     5  O   6.0   -0.05    1.32    1.80     1.55687    -5.21422    -0.01925
     6  N   5.0   -0.18    2.02    1.90     2.82756    -3.54717     1.16053
     7  C   4.0    0.12    3.03    3.02     1.91835    -1.23839     1.18347
     8  H   1.0    0.33    1.00    1.43    -2.83251     0.88534    -2.35488
     9  H   1.0    0.17    0.99    1.43     2.84458     0.29181     2.20898

           ------------------------------------------------- 
          |        Self-Consistent Charge Iterations        |
           ------------------------------------------------- 
q/qsh data taken from xtbrestart
CAMM data taken from xtbrestart

          ...................................................
          :                      SETUP                      :
          :.................................................:
          :  # basis functions                  30          :
          :  # atomic orbitals                  30          :
          :  # shells                           16          :
          :  # electrons                        36          :
          :  max. iterations                   250          :
          :  Hamiltonian                  GFN2-xTB          :
          :  restarted?                       true          :
          :  GBSA solvation                  false          :
          :  PC potential                    false          :
          :  electronic temp.          300.0000000     K    :
          :  accuracy                    0.2000000          :
          :  -> integral cutoff          0.3198970E+02      :
          :  -> integral neglect         0.2000000E-08      :
          :  -> SCF convergence          0.2000000E-06 Eh   :
          :  -> wf. convergence          0.2000000E-04 e    :
          :  Broyden damping             0.4000000          :
          ...................................................

 iter      E             dE          RMSdq      gap      omega  full diag
   1    -21.0702140 -0.210702E+02  0.168E+00    0.70       0.0  T
   2    -21.0697429  0.471085E-03  0.114E+00    0.91       1.0  T
   3    -21.0712275 -0.148459E-02  0.772E-01    0.65       1.0  T
   4    -21.0752753 -0.404778E-02  0.152E-01    0.75       1.0  T
   5    -21.0754111 -0.135875E-03  0.596E-02    0.74       1.0  T
   6    -21.0754174 -0.630070E-05  0.149E-02    0.73       2.2  T
   7    -21.0754179 -0.451423E-06  0.573E-03    0.74       5.8  T
   8    -21.0754179 -0.116586E-09  0.335E-03    0.74       9.9  T
   9    -21.0754179 -0.584389E-07  0.766E-04    0.74      43.5  T
  10    -21.0754179 -0.129587E-08  0.356E-04    0.74      93.7  T
  11    -21.0754179 -0.430447E-10  0.963E-05    0.74     346.0  T
  12    -21.0754179 -0.645173E-10  0.361E-05    0.74     922.2  T

   *** convergence criteria satisfied after 12 iterations ***

         #    Occupation            Energy/Eh            Energy/eV
      -------------------------------------------------------------
         1        2.0000           -0.7518128             -20.4579
       ...           ...                  ...                  ...
        12        2.0000           -0.5414240             -14.7329
        13        2.0000           -0.5281736             -14.3723
        14        2.0000           -0.5038226             -13.7097
        15        2.0000           -0.4978564             -13.5474
        16        2.0000           -0.4547471             -12.3743
        17        2.0000           -0.4345347             -11.8243
        18        2.0000           -0.3966415             -10.7932 (HOMO)
        19        0.0000           -0.3696248             -10.0580 (LUMO)
        20                         -0.3012879              -8.1985
        21                         -0.2978673              -8.1054
        22                         -0.2152846              -5.8582
        23                         -0.0178634              -0.4861
       ...                                ...                  ...
        30                          0.7023419              19.1117
      -------------------------------------------------------------
                  HL-Gap            0.0270167 Eh            0.7352 eV
             Fermi-level           -0.3831331 Eh          -10.4256 eV

 SCC (total)                   0 d,  0 h,  0 min,  0.007 sec
 SCC setup                      ...        0 min,  0.000 sec (  1.804%)
 Dispersion                     ...        0 min,  0.000 sec (  0.867%)
 integral evaluation            ...        0 min,  0.001 sec ( 14.983%)
 zeroth order Hamiltonian       ...        0 min,  0.000 sec (  0.434%)
 iterations                     ...        0 min,  0.004 sec ( 51.943%)
 molecular gradient             ...        0 min,  0.002 sec ( 27.114%)
 printout                       ...        0 min,  0.000 sec (  2.378%)

         :::::::::::::::::::::::::::::::::::::::::::::::::::::
         ::                     SUMMARY                     ::
         :::::::::::::::::::::::::::::::::::::::::::::::::::::
         :: total energy              -20.858403080094 Eh   ::
         :: gradient norm               0.042730151134 Eh/α ::
         :: HOMO-LUMO gap               0.735162276459 eV   ::
         ::.................................................::
         :: SCC energy                -21.075417946639 Eh   ::
         :: -> isotropic ES             0.028828185709 Eh   ::
         :: -> anisotropic ES           0.002829611023 Eh   ::
         :: -> anisotropic XC           0.031068011847 Eh   ::
         :: -> dispersion              -0.006057378926 Eh   ::
         :: repulsion energy            0.217011122078 Eh   ::
         :: add. restraining            0.000000000000 Eh   ::
         :::::::::::::::::::::::::::::::::::::::::::::::::::::

           -------------------------------------------------
          |                Property Printout                |
           -------------------------------------------------

    * Orbital Energies and Occupations

         #    Occupation            Energy/Eh            Energy/eV
      -------------------------------------------------------------
         1        2.0000           -0.7518128             -20.4579
       ...           ...                  ...                  ...
         6        2.0000           -0.6477050             -17.6249
         7        2.0000           -0.6260216             -17.0349
         8        2.0000           -0.6101152             -16.6021
         9        2.0000           -0.5826037             -15.8535
        10        2.0000           -0.5741832             -15.6243
        11        2.0000           -0.5519873             -15.0203
        12        2.0000           -0.5414240             -14.7329
        13        2.0000           -0.5281736             -14.3723
        14        2.0000           -0.5038226             -13.7097
        15        2.0000           -0.4978564             -13.5474
        16        2.0000           -0.4547471             -12.3743
        17        2.0000           -0.4345347             -11.8243
        18        2.0000           -0.3966415             -10.7932 (HOMO)
        19        0.0000           -0.3696248             -10.0580 (LUMO)
        20                         -0.3012879              -8.1985
        21                         -0.2978673              -8.1054
        22                         -0.2152846              -5.8582
        23                         -0.0178634              -0.4861
        24                          0.0418020               1.1375
        25                          0.0745260               2.0280
        26                          0.1969344               5.3589
        27                          0.2985787               8.1247
        28                          0.3696045              10.0575
        29                          0.5253546              14.2956
        30                          0.7023419              19.1117
      -------------------------------------------------------------
                  HL-Gap            0.0270167 Eh            0.7352 eV
             Fermi-level           -0.3831331 Eh          -10.4256 eV

   #   Z        covCN         q      C6AA      α(0)
   1   7 N      1.776    -0.273    27.914     7.824
   2   6 C      2.821     0.166    24.413     8.096
   3   7 N      2.184     0.207    18.186     6.329
   4   7 N      0.984    -0.109    23.015     6.900
   5   8 O      1.216    -0.284    19.286     5.899
   6   7 N      1.854     0.035    21.314     6.843
   7   6 C      2.845    -0.003    28.090     8.686
   8   1 H      0.860     0.176     1.237     1.742
   9   1 H      0.924     0.086     1.922     2.168

 Mol. C6AA /au·bohr⁶  :       1297.954813
 Mol. C8AA /au·bohr⁸  :      29668.086050
 Mol. α(0) /au        :         54.486601


Wiberg/Mayer (AO) data.
largest (>0.10) Wiberg bond orders for each atom
          total WBO             WBO to atom ...
     1  N   3.112        C    2 1.792    H    8 0.938    N    4 0.101
     2  C   3.948        N    1 1.792    C    7 1.123    N    3 0.911
     3  N   3.765        N    4 2.343    C    2 0.911    O    5 0.334
     4  N   2.868        N    3 2.343    O    5 0.263    N    1 0.101
     5  O   2.255        N    6 1.333    N    3 0.334    N    4 0.263    C    7 0.182
     6  N   3.219        C    7 1.594    O    5 1.333
     7  C   3.964        N    6 1.594    C    2 1.123    H    9 0.957    O    5 0.182
     8  H   0.969        N    1 0.938
     9  H   0.993        C    7 0.957

molecular dipole:
                 x           y           z       tot (Debye)
 q only:       -0.259       0.879       0.058
   full:       -0.456       0.891      -0.055       2.547
molecular quadrupole (traceless):
                xx          xy          yy          xz          yz          zz
 q only:        3.506       2.117      -7.827       1.988       0.043       4.321
  q+dip:        3.517       2.104     -10.193       2.031       0.534       6.676
   full:        3.002       1.863     -11.076       0.947       0.569       8.074


           -------------------------------------------------
          | TOTAL ENERGY              -20.858403080094 Eh   |
          | GRADIENT NORM               0.042730151134 Eh/α |
          | HOMO-LUMO GAP               0.735162276459 eV   |
           -------------------------------------------------

------------------------------------------------------------------------
 * finished run on 2021/06/02 at 10:00:08.031     
------------------------------------------------------------------------
 total:
 * wall-time:     0 d,  0 h,  0 min,  0.015 sec
 *  cpu-time:     0 d,  0 h,  0 min,  0.015 sec
 * ratio c/w:     0.986 speedup
 SCF:
 * wall-time:     0 d,  0 h,  0 min,  0.007 sec
 *  cpu-time:     0 d,  0 h,  0 min,  0.007 sec
 * ratio c/w:     1.000 speedup

