      -----------------------------------------------------------      
     |                   =====================                   |     
     |                           x T B                           |     
     |                   =====================                   |     
     |                         S. Grimme                         |     
     |          Mulliken Center for Theoretical Chemistry        |     
     |                    University of Bonn                     |     
     |                 Version 6.1.4 (SAW190525)                 |     
      -----------------------------------------------------------      

   This program is distributed in the hope that it will be useful,
   but WITHOUT ANY WARRANTY; without even the implied warranty of
   MERCHANTABILITY or FITNESS FOR A PARTICULAR PURPOSE.
   
   FOR NON-COMMERCIAL, ACADEMIA USE ONLY.
   
   Cite this work as:
   S. Grimme, C. Bannwarth, P. Shushkov, J. Comput. Theory Chem., 2017,
   13, 1989-2009. DOI: 10.1021/acs.jctc.7b00118
   C. Bannwarth, S. Ehlert and S. Grimme., J. Comput. Theory Chem., 2019,
   just accepted. DOI: 10.1021/acs.jctc.8b01176
   
   for sTDA-xTB:
   S. Grimme and C. Bannwarth, J. Chem. Phys., 2016, 145, 054103.
   DOI: 10.1063/1.4959605
   
   in the mass-spec context:
   V. Asgeirsson, C. Bauer and S. Grimme, Chem. Sci., 2017, 8, 4879.
   DOI: 10.1039/c7sc00601b
   
   for metadynamics refer to:
   S. Grimme, J. Chem. Theory Comput. Article ASAP, 2019,
   DOI: 10.1021/acs.jctc.9b00143
   
   with help from (in alphabetical order)
   C. Bannwarth, F. Bohle, G. Brandenburg, E. Caldeweyher, M. Checinski,
   S. Dohm, S. Ehlert, S. Ehrlich, F. März, H. Neugebauer, J. Pisarek,
   P. Pracht, P. Shushkov, and S. Spicher.
   
 * started run on 2021/06/02 at 10:00:07.474     

           -------------------------------------------------
          |                Calculation Setup                |
           -------------------------------------------------

          program call               : /groups/kemi/koerstz/opt/xtb/6.1/bin/xtb 13.xyz --gfn2 --acc 0.2 --chrg 0
          hostname                   : node305
          coordinate file            : 13.xyz
          omp threads                :                     1
          number of atoms            :                     9
          number of electrons        :                    36
          charge                     :                     0
          spin                       :                   0.0
          first test random number   :      0.43008580038198


########################################################################
# WARNING! Please study the warnings concerning your input carefully
#  - XTBPATH is not set, using XTBHOME instead
########################################################################

           ------------------------------------------------- 
          |                 G F N 2 - x T B                 |
          | Geometry, Frequencies, Noncovalent interactions |
          |            JCTC 2018 parametrisation            |
           ------------------------------------------------- 
             k(s)              :                1.8500
             k(p)              :                2.2300
             k(d)              :                2.2300
             k(f)              :                2.0000
             kEN (H0ij)        :               -2.0000
             D4 a1             :                0.5200
             D4 a2             :                5.0000
             D4 s6             :                1.0000
             D4 s8             :                2.7000
             D4 s9             :                5.0000
             alphaj            :                2.0000

  Z AO/shell   Hii/eV     exponent
  1     Wed Apr 25 08:07:45 CEST 2018   EN: 2.200 GM2: 0.406  GM3: 0.0800  RAES: 1.40
     1s    -10.707211    1.230000
  6     Wed Apr 25 08:07:45 CEST 2018   EN: 2.550 GM2: 0.538  GM3: 0.1500  RAES: 3.00
     2s    -13.970922    2.096432
     2p    -10.063292    1.800000
  7     Wed Apr 25 08:07:45 CEST 2018   EN: 3.040 GM2: 0.461  GM3:-0.0640  RAES: 1.90
     2s    -16.686243    2.339881
     2p    -12.523956    2.014332
  8     Wed Apr 25 08:07:45 CEST 2018   EN: 3.440 GM2: 0.452  GM3:-0.0517  RAES: 1.80
     2s    -20.229985    2.439742
     2p    -15.503117    2.137023


            Z     q(EN)     CN     RAES       Cart. coordinates
     1  N   5.0   -0.46    2.00    1.90    -1.28043     1.05352    -1.20017
     2  C   4.0    0.30    3.03    3.02    -0.37151    -0.94882    -0.26554
     3  N   5.0   -0.06    2.33    1.90    -1.41593    -3.42465    -0.74991
     4  N   5.0   -0.17    1.00    1.90    -3.27976    -4.50272    -0.83820
     5  O   6.0   -0.05    1.33    1.80     1.55354    -5.19666    -0.03133
     6  N   5.0   -0.18    2.03    1.90     2.79530    -3.54254     1.19985
     7  C   4.0    0.12    3.03    3.02     1.90717    -1.24646     1.19222
     8  H   1.0    0.33    1.00    1.43    -2.80742     0.87031    -2.36948
     9  H   1.0    0.17    0.99    1.43     2.85383     0.28582     2.15987

           ------------------------------------------------- 
          |        Self-Consistent Charge Iterations        |
           ------------------------------------------------- 
q/qsh data taken from xtbrestart
CAMM data taken from xtbrestart

          ...................................................
          :                      SETUP                      :
          :.................................................:
          :  # basis functions                  30          :
          :  # atomic orbitals                  30          :
          :  # shells                           16          :
          :  # electrons                        36          :
          :  max. iterations                   250          :
          :  Hamiltonian                  GFN2-xTB          :
          :  restarted?                       true          :
          :  GBSA solvation                  false          :
          :  PC potential                    false          :
          :  electronic temp.          300.0000000     K    :
          :  accuracy                    0.2000000          :
          :  -> integral cutoff          0.3198970E+02      :
          :  -> integral neglect         0.2000000E-08      :
          :  -> SCF convergence          0.2000000E-06 Eh   :
          :  -> wf. convergence          0.2000000E-04 e    :
          :  Broyden damping             0.4000000          :
          ...................................................

 iter      E             dE          RMSdq      gap      omega  full diag
   1    -21.0369101 -0.210369E+02  0.580E+00    1.96       0.0  T
   2    -21.0473753 -0.104653E-01  0.359E+00    0.94       1.0  T
   3    -21.0335172  0.138581E-01  0.274E+00    1.43       1.0  T
   4    -21.0784429 -0.449256E-01  0.525E-01    0.75       1.0  T
   5    -21.0797507 -0.130782E-02  0.169E-01    0.73       1.0  T
   6    -21.0797869 -0.362059E-04  0.911E-02    0.73       1.0  T
   7    -21.0798117 -0.247975E-04  0.339E-02    0.73       1.0  T
   8    -21.0798146 -0.285162E-05  0.140E-02    0.73       2.4  T
   9    -21.0798149 -0.353130E-06  0.702E-03    0.73       4.7  T
  10    -21.0798150 -0.123404E-06  0.233E-03    0.73      14.3  T
  11    -21.0798150 -0.129449E-07  0.129E-03    0.73      25.8  T
  12    -21.0798151 -0.384512E-08  0.250E-04    0.73     133.1  T
  13    -21.0798151 -0.532410E-10  0.101E-04    0.73     330.1  T
  14    -21.0798151 -0.347669E-10  0.244E-05    0.73    1365.5  T

   *** convergence criteria satisfied after 14 iterations ***

         #    Occupation            Energy/Eh            Energy/eV
      -------------------------------------------------------------
         1        2.0000           -0.7528455             -20.4860
       ...           ...                  ...                  ...
        12        2.0000           -0.5413365             -14.7305
        13        2.0000           -0.5291116             -14.3979
        14        2.0000           -0.5042372             -13.7210
        15        2.0000           -0.4973994             -13.5349
        16        2.0000           -0.4556246             -12.3982
        17        2.0000           -0.4357120             -11.8563
        18        2.0000           -0.3969300             -10.8010 (HOMO)
        19        0.0000           -0.3701487             -10.0723 (LUMO)
        20                         -0.3018107              -8.2127
        21                         -0.2965109              -8.0685
        22                         -0.2124694              -5.7816
        23                         -0.0138262              -0.3762
       ...                                ...                  ...
        30                          0.7037642              19.1504
      -------------------------------------------------------------
                  HL-Gap            0.0267813 Eh            0.7288 eV
             Fermi-level           -0.3835393 Eh          -10.4366 eV

 SCC (total)                   0 d,  0 h,  0 min,  0.008 sec
 SCC setup                      ...        0 min,  0.000 sec (  1.750%)
 Dispersion                     ...        0 min,  0.000 sec (  0.796%)
 integral evaluation            ...        0 min,  0.001 sec ( 14.194%)
 zeroth order Hamiltonian       ...        0 min,  0.000 sec (  0.432%)
 iterations                     ...        0 min,  0.004 sec ( 53.970%)
 molecular gradient             ...        0 min,  0.002 sec ( 26.228%)
 printout                       ...        0 min,  0.000 sec (  2.138%)

         :::::::::::::::::::::::::::::::::::::::::::::::::::::
         ::                     SUMMARY                     ::
         :::::::::::::::::::::::::::::::::::::::::::::::::::::
         :: total energy              -20.859351540681 Eh   ::
         :: gradient norm               0.036354181940 Eh/α ::
         :: HOMO-LUMO gap               0.728755856599 eV   ::
         ::.................................................::
         :: SCC energy                -21.079815050366 Eh   ::
         :: -> isotropic ES             0.029131878502 Eh   ::
         :: -> anisotropic ES           0.002973030488 Eh   ::
         :: -> anisotropic XC           0.030954590097 Eh   ::
         :: -> dispersion              -0.006064689196 Eh   ::
         :: repulsion energy            0.220459840563 Eh   ::
         :: add. restraining            0.000000000000 Eh   ::
         :::::::::::::::::::::::::::::::::::::::::::::::::::::

           -------------------------------------------------
          |                Property Printout                |
           -------------------------------------------------

    * Orbital Energies and Occupations

         #    Occupation            Energy/Eh            Energy/eV
      -------------------------------------------------------------
         1        2.0000           -0.7528455             -20.4860
       ...           ...                  ...                  ...
         6        2.0000           -0.6486558             -17.6508
         7        2.0000           -0.6267521             -17.0548
         8        2.0000           -0.6105082             -16.6128
         9        2.0000           -0.5834957             -15.8777
        10        2.0000           -0.5746572             -15.6372
        11        2.0000           -0.5519904             -15.0204
        12        2.0000           -0.5413365             -14.7305
        13        2.0000           -0.5291116             -14.3979
        14        2.0000           -0.5042372             -13.7210
        15        2.0000           -0.4973994             -13.5349
        16        2.0000           -0.4556246             -12.3982
        17        2.0000           -0.4357120             -11.8563
        18        2.0000           -0.3969300             -10.8010 (HOMO)
        19        0.0000           -0.3701487             -10.0723 (LUMO)
        20                         -0.3018107              -8.2127
        21                         -0.2965109              -8.0685
        22                         -0.2124694              -5.7816
        23                         -0.0138262              -0.3762
        24                          0.0433968               1.1809
        25                          0.0787060               2.1417
        26                          0.2028461               5.5197
        27                          0.3066064               8.3432
        28                          0.3824164              10.4061
        29                          0.5317314              14.4691
        30                          0.7037642              19.1504
      -------------------------------------------------------------
                  HL-Gap            0.0267813 Eh            0.7288 eV
             Fermi-level           -0.3835393 Eh          -10.4366 eV

   #   Z        covCN         q      C6AA      α(0)
   1   7 N      1.776    -0.274    27.920     7.825
   2   6 C      2.825     0.167    24.389     8.092
   3   7 N      2.195     0.207    18.161     6.324
   4   7 N      0.984    -0.109    23.020     6.901
   5   8 O      1.228    -0.286    19.310     5.903
   6   7 N      1.858     0.034    21.325     6.845
   7   6 C      2.850    -0.001    28.057     8.681
   8   1 H      0.860     0.175     1.240     1.745
   9   1 H      0.925     0.086     1.916     2.165

 Mol. C6AA /au·bohr⁶  :       1297.666634
 Mol. C8AA /au·bohr⁸  :      29660.432971
 Mol. α(0) /au        :         54.481151


Wiberg/Mayer (AO) data.
largest (>0.10) Wiberg bond orders for each atom
          total WBO             WBO to atom ...
     1  N   3.108        C    2 1.788    H    8 0.938    N    4 0.104
     2  C   3.949        N    1 1.788    C    7 1.119    N    3 0.920
     3  N   3.769        N    4 2.335    C    2 0.920    O    5 0.338
     4  N   2.864        N    3 2.335    O    5 0.263    N    1 0.104
     5  O   2.249        N    6 1.327    N    3 0.338    N    4 0.263    C    7 0.180
     6  N   3.220        C    7 1.604    O    5 1.327
     7  C   3.965        N    6 1.604    C    2 1.119    H    9 0.957    O    5 0.180
     8  H   0.969        N    1 0.938
     9  H   0.993        C    7 0.957

molecular dipole:
                 x           y           z       tot (Debye)
 q only:       -0.246       0.879       0.039
   full:       -0.426       0.891      -0.096       2.522
molecular quadrupole (traceless):
                xx          xy          yy          xz          yz          zz
 q only:        3.472       2.156      -7.874       2.008       0.016       4.403
  q+dip:        3.513       2.197     -10.286       2.023       0.489       6.773
   full:        3.020       1.941     -11.193       0.959       0.536       8.173


           -------------------------------------------------
          | TOTAL ENERGY              -20.859351540681 Eh   |
          | GRADIENT NORM               0.036354181940 Eh/α |
          | HOMO-LUMO GAP               0.728755856599 eV   |
           -------------------------------------------------

------------------------------------------------------------------------
 * finished run on 2021/06/02 at 10:00:07.490     
------------------------------------------------------------------------
 total:
 * wall-time:     0 d,  0 h,  0 min,  0.016 sec
 *  cpu-time:     0 d,  0 h,  0 min,  0.015 sec
 * ratio c/w:     0.986 speedup
 SCF:
 * wall-time:     0 d,  0 h,  0 min,  0.008 sec
 *  cpu-time:     0 d,  0 h,  0 min,  0.008 sec
 * ratio c/w:     0.999 speedup

