      -----------------------------------------------------------      
     |                   =====================                   |     
     |                           x T B                           |     
     |                   =====================                   |     
     |                         S. Grimme                         |     
     |          Mulliken Center for Theoretical Chemistry        |     
     |                    University of Bonn                     |     
     |                 Version 6.1.4 (SAW190525)                 |     
      -----------------------------------------------------------      

   This program is distributed in the hope that it will be useful,
   but WITHOUT ANY WARRANTY; without even the implied warranty of
   MERCHANTABILITY or FITNESS FOR A PARTICULAR PURPOSE.
   
   FOR NON-COMMERCIAL, ACADEMIA USE ONLY.
   
   Cite this work as:
   S. Grimme, C. Bannwarth, P. Shushkov, J. Comput. Theory Chem., 2017,
   13, 1989-2009. DOI: 10.1021/acs.jctc.7b00118
   C. Bannwarth, S. Ehlert and S. Grimme., J. Comput. Theory Chem., 2019,
   just accepted. DOI: 10.1021/acs.jctc.8b01176
   
   for sTDA-xTB:
   S. Grimme and C. Bannwarth, J. Chem. Phys., 2016, 145, 054103.
   DOI: 10.1063/1.4959605
   
   in the mass-spec context:
   V. Asgeirsson, C. Bauer and S. Grimme, Chem. Sci., 2017, 8, 4879.
   DOI: 10.1039/c7sc00601b
   
   for metadynamics refer to:
   S. Grimme, J. Chem. Theory Comput. Article ASAP, 2019,
   DOI: 10.1021/acs.jctc.9b00143
   
   with help from (in alphabetical order)
   C. Bannwarth, F. Bohle, G. Brandenburg, E. Caldeweyher, M. Checinski,
   S. Dohm, S. Ehlert, S. Ehrlich, F. März, H. Neugebauer, J. Pisarek,
   P. Pracht, P. Shushkov, and S. Spicher.
   
 * started run on 2021/06/02 at 10:00:08.283     

           -------------------------------------------------
          |                Calculation Setup                |
           -------------------------------------------------

          program call               : /groups/kemi/koerstz/opt/xtb/6.1/bin/xtb 14.xyz --gfn2 --acc 0.2 --chrg 0
          hostname                   : node305
          coordinate file            : 14.xyz
          omp threads                :                     1
          number of atoms            :                     9
          number of electrons        :                    36
          charge                     :                     0
          spin                       :                   0.0
          first test random number   :      0.05612485658872


########################################################################
# WARNING! Please study the warnings concerning your input carefully
#  - XTBPATH is not set, using XTBHOME instead
########################################################################

           ------------------------------------------------- 
          |                 G F N 2 - x T B                 |
          | Geometry, Frequencies, Noncovalent interactions |
          |            JCTC 2018 parametrisation            |
           ------------------------------------------------- 
             k(s)              :                1.8500
             k(p)              :                2.2300
             k(d)              :                2.2300
             k(f)              :                2.0000
             kEN (H0ij)        :               -2.0000
             D4 a1             :                0.5200
             D4 a2             :                5.0000
             D4 s6             :                1.0000
             D4 s8             :                2.7000
             D4 s9             :                5.0000
             alphaj            :                2.0000

  Z AO/shell   Hii/eV     exponent
  1     Wed Apr 25 08:07:45 CEST 2018   EN: 2.200 GM2: 0.406  GM3: 0.0800  RAES: 1.40
     1s    -10.707211    1.230000
  6     Wed Apr 25 08:07:45 CEST 2018   EN: 2.550 GM2: 0.538  GM3: 0.1500  RAES: 3.00
     2s    -13.970922    2.096432
     2p    -10.063292    1.800000
  7     Wed Apr 25 08:07:45 CEST 2018   EN: 3.040 GM2: 0.461  GM3:-0.0640  RAES: 1.90
     2s    -16.686243    2.339881
     2p    -12.523956    2.014332
  8     Wed Apr 25 08:07:45 CEST 2018   EN: 3.440 GM2: 0.452  GM3:-0.0517  RAES: 1.80
     2s    -20.229985    2.439742
     2p    -15.503117    2.137023


            Z     q(EN)     CN     RAES       Cart. coordinates
     1  N   5.0   -0.46    2.00    1.90    -1.25960     1.05423    -1.24419
     2  C   4.0    0.30    3.02    3.02    -0.37695    -0.94577    -0.26855
     3  N   5.0   -0.06    2.32    1.90    -1.42283    -3.42577    -0.75305
     4  N   5.0   -0.17    1.00    1.90    -3.27654    -4.52111    -0.77838
     5  O   6.0   -0.05    1.33    1.80     1.55332    -5.19628    -0.03984
     6  N   5.0   -0.18    2.02    1.90     2.81990    -3.54023     1.15228
     7  C   4.0    0.12    3.03    3.02     1.90791    -1.24905     1.17922
     8  H   1.0    0.33    1.00    1.43    -2.80895     0.89714    -2.37246
     9  H   1.0    0.17    0.99    1.43     2.81853     0.27463     2.22228

           ------------------------------------------------- 
          |        Self-Consistent Charge Iterations        |
           ------------------------------------------------- 
q/qsh data taken from xtbrestart
CAMM data taken from xtbrestart

          ...................................................
          :                      SETUP                      :
          :.................................................:
          :  # basis functions                  30          :
          :  # atomic orbitals                  30          :
          :  # shells                           16          :
          :  # electrons                        36          :
          :  max. iterations                   250          :
          :  Hamiltonian                  GFN2-xTB          :
          :  restarted?                       true          :
          :  GBSA solvation                  false          :
          :  PC potential                    false          :
          :  electronic temp.          300.0000000     K    :
          :  accuracy                    0.2000000          :
          :  -> integral cutoff          0.3198970E+02      :
          :  -> integral neglect         0.2000000E-08      :
          :  -> SCF convergence          0.2000000E-06 Eh   :
          :  -> wf. convergence          0.2000000E-04 e    :
          :  Broyden damping             0.4000000          :
          ...................................................

 iter      E             dE          RMSdq      gap      omega  full diag
   1    -21.0391150 -0.210391E+02  0.618E+00    1.84       0.0  T
   2    -21.0495051 -0.103901E-01  0.349E+00    0.85       1.0  T
   3    -21.0259147  0.235904E-01  0.294E+00    1.32       1.0  T
   4    -21.0756724 -0.497577E-01  0.601E-01    0.71       1.0  T
   5    -21.0774623 -0.178990E-02  0.229E-01    0.72       1.0  T
   6    -21.0774392  0.230839E-04  0.134E-01    0.70       1.0  T
   7    -21.0775375 -0.982472E-04  0.471E-02    0.71       1.0  T
   8    -21.0775427 -0.522239E-05  0.211E-02    0.71       1.6  T
   9    -21.0775435 -0.777984E-06  0.106E-02    0.71       3.1  T
  10    -21.0775437 -0.242026E-06  0.432E-03    0.71       7.7  T
  11    -21.0775438 -0.846034E-07  0.170E-03    0.71      19.6  T
  12    -21.0775438 -0.414014E-08  0.314E-04    0.71     106.2  T
  13    -21.0775438 -0.468958E-10  0.124E-04    0.71     268.7  T
  14    -21.0775438 -0.529568E-10  0.245E-05    0.71    1360.9  T

   *** convergence criteria satisfied after 14 iterations ***

         #    Occupation            Energy/Eh            Energy/eV
      -------------------------------------------------------------
         1        2.0000           -0.7529313             -20.4883
       ...           ...                  ...                  ...
        12        2.0000           -0.5409892             -14.7211
        13        2.0000           -0.5281707             -14.3723
        14        2.0000           -0.5042043             -13.7201
        15        2.0000           -0.4976307             -13.5412
        16        2.0000           -0.4546567             -12.3718
        17        2.0000           -0.4348783             -11.8336
        18        2.0000           -0.3963843             -10.7862 (HOMO)
        19        0.0000           -0.3702508             -10.0750 (LUMO)
        20                         -0.3011287              -8.1941
        21                         -0.2961377              -8.0583
        22                         -0.2145865              -5.8392
        23                         -0.0153905              -0.4188
       ...                                ...                  ...
        30                          0.7018264              19.0977
      -------------------------------------------------------------
                  HL-Gap            0.0261336 Eh            0.7111 eV
             Fermi-level           -0.3833175 Eh          -10.4306 eV

 SCC (total)                   0 d,  0 h,  0 min,  0.008 sec
 SCC setup                      ...        0 min,  0.000 sec (  1.616%)
 Dispersion                     ...        0 min,  0.000 sec (  0.745%)
 integral evaluation            ...        0 min,  0.001 sec ( 14.690%)
 zeroth order Hamiltonian       ...        0 min,  0.000 sec (  0.416%)
 iterations                     ...        0 min,  0.004 sec ( 54.143%)
 molecular gradient             ...        0 min,  0.002 sec ( 25.989%)
 printout                       ...        0 min,  0.000 sec (  1.979%)

         :::::::::::::::::::::::::::::::::::::::::::::::::::::
         ::                     SUMMARY                     ::
         :::::::::::::::::::::::::::::::::::::::::::::::::::::
         :: total energy              -20.858214872203 Eh   ::
         :: gradient norm               0.040617823641 Eh/α ::
         :: HOMO-LUMO gap               0.711130479418 eV   ::
         ::.................................................::
         :: SCC energy                -21.077543815280 Eh   ::
         :: -> isotropic ES             0.029065904810 Eh   ::
         :: -> anisotropic ES           0.002953861419 Eh   ::
         :: -> anisotropic XC           0.031029788943 Eh   ::
         :: -> dispersion              -0.006063636186 Eh   ::
         :: repulsion energy            0.219325197287 Eh   ::
         :: add. restraining            0.000000000000 Eh   ::
         :::::::::::::::::::::::::::::::::::::::::::::::::::::

           -------------------------------------------------
          |                Property Printout                |
           -------------------------------------------------

    * Orbital Energies and Occupations

         #    Occupation            Energy/Eh            Energy/eV
      -------------------------------------------------------------
         1        2.0000           -0.7529313             -20.4883
       ...           ...                  ...                  ...
         6        2.0000           -0.6485061             -17.6467
         7        2.0000           -0.6265972             -17.0506
         8        2.0000           -0.6103040             -16.6072
         9        2.0000           -0.5829601             -15.8632
        10        2.0000           -0.5750808             -15.6487
        11        2.0000           -0.5520425             -15.0218
        12        2.0000           -0.5409892             -14.7211
        13        2.0000           -0.5281707             -14.3723
        14        2.0000           -0.5042043             -13.7201
        15        2.0000           -0.4976307             -13.5412
        16        2.0000           -0.4546567             -12.3718
        17        2.0000           -0.4348783             -11.8336
        18        2.0000           -0.3963843             -10.7862 (HOMO)
        19        0.0000           -0.3702508             -10.0750 (LUMO)
        20                         -0.3011287              -8.1941
        21                         -0.2961377              -8.0583
        22                         -0.2145865              -5.8392
        23                         -0.0153905              -0.4188
        24                          0.0451978               1.2299
        25                          0.0793254               2.1586
        26                          0.2006077               5.4588
        27                          0.3039872               8.2719
        28                          0.3811038              10.3704
        29                          0.5284217              14.3791
        30                          0.7018264              19.0977
      -------------------------------------------------------------
                  HL-Gap            0.0261336 Eh            0.7111 eV
             Fermi-level           -0.3833175 Eh          -10.4306 eV

   #   Z        covCN         q      C6AA      α(0)
   1   7 N      1.776    -0.275    27.948     7.829
   2   6 C      2.823     0.167    24.395     8.093
   3   7 N      2.191     0.207    18.176     6.327
   4   7 N      0.984    -0.108    22.996     6.897
   5   8 O      1.225    -0.285    19.302     5.902
   6   7 N      1.856     0.035    21.308     6.842
   7   6 C      2.850    -0.002    28.067     8.683
   8   1 H      0.860     0.176     1.238     1.743
   9   1 H      0.925     0.085     1.925     2.170

 Mol. C6AA /au·bohr⁶  :       1297.851180
 Mol. C8AA /au·bohr⁸  :      29664.207729
 Mol. α(0) /au        :         54.485172


Wiberg/Mayer (AO) data.
largest (>0.10) Wiberg bond orders for each atom
          total WBO             WBO to atom ...
     1  N   3.109        C    2 1.789    H    8 0.938    N    4 0.102
     2  C   3.948        N    1 1.789    C    7 1.120    N    3 0.917
     3  N   3.767        N    4 2.338    C    2 0.917    O    5 0.335
     4  N   2.867        N    3 2.338    O    5 0.263    N    1 0.102
     5  O   2.252        N    6 1.331    N    3 0.335    N    4 0.263    C    7 0.181
     6  N   3.219        C    7 1.599    O    5 1.331
     7  C   3.964        N    6 1.599    C    2 1.120    H    9 0.956    O    5 0.181
     8  H   0.969        N    1 0.938
     9  H   0.993        C    7 0.956

molecular dipole:
                 x           y           z       tot (Debye)
 q only:       -0.259       0.874       0.047
   full:       -0.451       0.889      -0.081       2.543
molecular quadrupole (traceless):
                xx          xy          yy          xz          yz          zz
 q only:        3.477       2.120      -7.850       2.049       0.052       4.373
  q+dip:        3.482       2.093     -10.305       2.134       0.576       6.823
   full:        2.995       1.848     -11.195       1.101       0.635       8.201


           -------------------------------------------------
          | TOTAL ENERGY              -20.858214872203 Eh   |
          | GRADIENT NORM               0.040617823641 Eh/α |
          | HOMO-LUMO GAP               0.711130479418 eV   |
           -------------------------------------------------

------------------------------------------------------------------------
 * finished run on 2021/06/02 at 10:00:08.299     
------------------------------------------------------------------------
 total:
 * wall-time:     0 d,  0 h,  0 min,  0.015 sec
 *  cpu-time:     0 d,  0 h,  0 min,  0.015 sec
 * ratio c/w:     0.985 speedup
 SCF:
 * wall-time:     0 d,  0 h,  0 min,  0.008 sec
 *  cpu-time:     0 d,  0 h,  0 min,  0.008 sec
 * ratio c/w:     1.000 speedup

