      -----------------------------------------------------------      
     |                   =====================                   |     
     |                           x T B                           |     
     |                   =====================                   |     
     |                         S. Grimme                         |     
     |          Mulliken Center for Theoretical Chemistry        |     
     |                    University of Bonn                     |     
     |                 Version 6.1.4 (SAW190525)                 |     
      -----------------------------------------------------------      

   This program is distributed in the hope that it will be useful,
   but WITHOUT ANY WARRANTY; without even the implied warranty of
   MERCHANTABILITY or FITNESS FOR A PARTICULAR PURPOSE.
   
   FOR NON-COMMERCIAL, ACADEMIA USE ONLY.
   
   Cite this work as:
   S. Grimme, C. Bannwarth, P. Shushkov, J. Comput. Theory Chem., 2017,
   13, 1989-2009. DOI: 10.1021/acs.jctc.7b00118
   C. Bannwarth, S. Ehlert and S. Grimme., J. Comput. Theory Chem., 2019,
   just accepted. DOI: 10.1021/acs.jctc.8b01176
   
   for sTDA-xTB:
   S. Grimme and C. Bannwarth, J. Chem. Phys., 2016, 145, 054103.
   DOI: 10.1063/1.4959605
   
   in the mass-spec context:
   V. Asgeirsson, C. Bauer and S. Grimme, Chem. Sci., 2017, 8, 4879.
   DOI: 10.1039/c7sc00601b
   
   for metadynamics refer to:
   S. Grimme, J. Chem. Theory Comput. Article ASAP, 2019,
   DOI: 10.1021/acs.jctc.9b00143
   
   with help from (in alphabetical order)
   C. Bannwarth, F. Bohle, G. Brandenburg, E. Caldeweyher, M. Checinski,
   S. Dohm, S. Ehlert, S. Ehrlich, F. März, H. Neugebauer, J. Pisarek,
   P. Pracht, P. Shushkov, and S. Spicher.
   
 * started run on 2021/06/02 at 10:00:07.862     

           -------------------------------------------------
          |                Calculation Setup                |
           -------------------------------------------------

          program call               : /groups/kemi/koerstz/opt/xtb/6.1/bin/xtb 16.xyz --gfn2 --acc 0.2 --chrg 0
          hostname                   : node305
          coordinate file            : 16.xyz
          omp threads                :                     1
          number of atoms            :                     9
          number of electrons        :                    36
          charge                     :                     0
          spin                       :                   0.0
          first test random number   :      0.98551343882859


########################################################################
# WARNING! Please study the warnings concerning your input carefully
#  - XTBPATH is not set, using XTBHOME instead
########################################################################

           ------------------------------------------------- 
          |                 G F N 2 - x T B                 |
          | Geometry, Frequencies, Noncovalent interactions |
          |            JCTC 2018 parametrisation            |
           ------------------------------------------------- 
             k(s)              :                1.8500
             k(p)              :                2.2300
             k(d)              :                2.2300
             k(f)              :                2.0000
             kEN (H0ij)        :               -2.0000
             D4 a1             :                0.5200
             D4 a2             :                5.0000
             D4 s6             :                1.0000
             D4 s8             :                2.7000
             D4 s9             :                5.0000
             alphaj            :                2.0000

  Z AO/shell   Hii/eV     exponent
  1     Wed Apr 25 08:07:45 CEST 2018   EN: 2.200 GM2: 0.406  GM3: 0.0800  RAES: 1.40
     1s    -10.707211    1.230000
  6     Wed Apr 25 08:07:45 CEST 2018   EN: 2.550 GM2: 0.538  GM3: 0.1500  RAES: 3.00
     2s    -13.970922    2.096432
     2p    -10.063292    1.800000
  7     Wed Apr 25 08:07:45 CEST 2018   EN: 3.040 GM2: 0.461  GM3:-0.0640  RAES: 1.90
     2s    -16.686243    2.339881
     2p    -12.523956    2.014332
  8     Wed Apr 25 08:07:45 CEST 2018   EN: 3.440 GM2: 0.452  GM3:-0.0517  RAES: 1.80
     2s    -20.229985    2.439742
     2p    -15.503117    2.137023


            Z     q(EN)     CN     RAES       Cart. coordinates
     1  N   5.0   -0.46    2.00    1.90    -1.23792     1.05405    -1.27811
     2  C   4.0    0.30    3.02    3.02    -0.39431    -0.93657    -0.25762
     3  N   5.0   -0.06    2.29    1.90    -1.44696    -3.41940    -0.73951
     4  N   5.0   -0.17    1.00    1.90    -3.28268    -4.54101    -0.66086
     5  O   6.0   -0.06    1.29    1.80     1.60109    -5.18240    -0.15697
     6  N   5.0   -0.18    2.02    1.90     2.82807    -3.54401     1.11603
     7  C   4.0    0.12    3.03    3.02     1.89396    -1.25012     1.19686
     8  H   1.0    0.33    1.00    1.43    -2.78517     0.90894    -2.41909
     9  H   1.0    0.17    0.99    1.43     2.77870     0.25831     2.29659

           ------------------------------------------------- 
          |        Self-Consistent Charge Iterations        |
           ------------------------------------------------- 
q/qsh data taken from xtbrestart
CAMM data taken from xtbrestart

          ...................................................
          :                      SETUP                      :
          :.................................................:
          :  # basis functions                  30          :
          :  # atomic orbitals                  30          :
          :  # shells                           16          :
          :  # electrons                        36          :
          :  max. iterations                   250          :
          :  Hamiltonian                  GFN2-xTB          :
          :  restarted?                       true          :
          :  GBSA solvation                  false          :
          :  PC potential                    false          :
          :  electronic temp.          300.0000000     K    :
          :  accuracy                    0.2000000          :
          :  -> integral cutoff          0.3198970E+02      :
          :  -> integral neglect         0.2000000E-08      :
          :  -> SCF convergence          0.2000000E-06 Eh   :
          :  -> wf. convergence          0.2000000E-04 e    :
          :  Broyden damping             0.4000000          :
          ...................................................

 iter      E             dE          RMSdq      gap      omega  full diag
   1    -21.0382587 -0.210383E+02  0.562E+00    1.87       0.0  T
   2    -21.0431429 -0.488418E-02  0.347E+00    0.92       1.0  T
   3    -21.0188660  0.242769E-01  0.277E+00    1.43       1.0  T
   4    -21.0709034 -0.520374E-01  0.502E-01    0.76       1.0  T
   5    -21.0720262 -0.112279E-02  0.166E-01    0.71       1.0  T
   6    -21.0720429 -0.167457E-04  0.827E-02    0.71       1.0  T
   7    -21.0720590 -0.160787E-04  0.347E-02    0.71       1.0  T
   8    -21.0720627 -0.369891E-05  0.138E-02    0.70       2.4  T
   9    -21.0720631 -0.390361E-06  0.713E-03    0.71       4.7  T
  10    -21.0720632 -0.991189E-07  0.195E-03    0.71      17.1  T
  11    -21.0720632 -0.752216E-08  0.123E-03    0.71      27.0  T
  12    -21.0720632 -0.474225E-08  0.335E-04    0.71      99.4  T
  13    -21.0720632 -0.519545E-09  0.116E-04    0.71     286.7  T
  14    -21.0720632 -0.467040E-10  0.181E-05    0.71    1838.8  T

   *** convergence criteria satisfied after 14 iterations ***

         #    Occupation            Energy/Eh            Energy/eV
      -------------------------------------------------------------
         1        2.0000           -0.7507326             -20.4285
       ...           ...                  ...                  ...
        12        2.0000           -0.5414089             -14.7325
        13        2.0000           -0.5277519             -14.3609
        14        2.0000           -0.5054826             -13.7549
        15        2.0000           -0.4972183             -13.5300
        16        2.0000           -0.4546038             -12.3704
        17        2.0000           -0.4336685             -11.8007
        18        2.0000           -0.3960423             -10.7769 (HOMO)
        19        0.0000           -0.3701013             -10.0710 (LUMO)
        20                         -0.3026757              -8.2362
        21                         -0.2997760              -8.1573
        22                         -0.2177902              -5.9264
        23                         -0.0180879              -0.4922
       ...                                ...                  ...
        30                          0.6970498              18.9677
      -------------------------------------------------------------
                  HL-Gap            0.0259410 Eh            0.7059 eV
             Fermi-level           -0.3830718 Eh          -10.4239 eV

 SCC (total)                   0 d,  0 h,  0 min,  0.008 sec
 SCC setup                      ...        0 min,  0.000 sec (  1.618%)
 Dispersion                     ...        0 min,  0.000 sec (  0.789%)
 integral evaluation            ...        0 min,  0.001 sec ( 14.537%)
 zeroth order Hamiltonian       ...        0 min,  0.000 sec (  0.443%)
 iterations                     ...        0 min,  0.004 sec ( 54.419%)
 molecular gradient             ...        0 min,  0.002 sec ( 25.648%)
 printout                       ...        0 min,  0.000 sec (  2.100%)

         :::::::::::::::::::::::::::::::::::::::::::::::::::::
         ::                     SUMMARY                     ::
         :::::::::::::::::::::::::::::::::::::::::::::::::::::
         :: total energy              -20.855652508233 Eh   ::
         :: gradient norm               0.045553701866 Eh/α ::
         :: HOMO-LUMO gap               0.705891559787 eV   ::
         ::.................................................::
         :: SCC energy                -21.072063177350 Eh   ::
         :: -> isotropic ES             0.029647017492 Eh   ::
         :: -> anisotropic ES           0.002707126635 Eh   ::
         :: -> anisotropic XC           0.031397080996 Eh   ::
         :: -> dispersion              -0.006065568736 Eh   ::
         :: repulsion energy            0.216406778050 Eh   ::
         :: add. restraining            0.000000000000 Eh   ::
         :::::::::::::::::::::::::::::::::::::::::::::::::::::

           -------------------------------------------------
          |                Property Printout                |
           -------------------------------------------------

    * Orbital Energies and Occupations

         #    Occupation            Energy/Eh            Energy/eV
      -------------------------------------------------------------
         1        2.0000           -0.7507326             -20.4285
       ...           ...                  ...                  ...
         6        2.0000           -0.6466275             -17.5956
         7        2.0000           -0.6265127             -17.0483
         8        2.0000           -0.6091390             -16.5755
         9        2.0000           -0.5827939             -15.8586
        10        2.0000           -0.5729901             -15.5919
        11        2.0000           -0.5516694             -15.0117
        12        2.0000           -0.5414089             -14.7325
        13        2.0000           -0.5277519             -14.3609
        14        2.0000           -0.5054826             -13.7549
        15        2.0000           -0.4972183             -13.5300
        16        2.0000           -0.4546038             -12.3704
        17        2.0000           -0.4336685             -11.8007
        18        2.0000           -0.3960423             -10.7769 (HOMO)
        19        0.0000           -0.3701013             -10.0710 (LUMO)
        20                         -0.3026757              -8.2362
        21                         -0.2997760              -8.1573
        22                         -0.2177902              -5.9264
        23                         -0.0180879              -0.4922
        24                          0.0397170               1.0808
        25                          0.0714947               1.9455
        26                          0.1938765               5.2756
        27                          0.3003241               8.1722
        28                          0.3693892              10.0516
        29                          0.5298228              14.4172
        30                          0.6970498              18.9677
      -------------------------------------------------------------
                  HL-Gap            0.0259410 Eh            0.7059 eV
             Fermi-level           -0.3830718 Eh          -10.4239 eV

   #   Z        covCN         q      C6AA      α(0)
   1   7 N      1.776    -0.274    27.923     7.825
   2   6 C      2.821     0.168    24.367     8.088
   3   7 N      2.157     0.205    18.252     6.339
   4   7 N      0.983    -0.102    22.882     6.880
   5   8 O      1.189    -0.290    19.425     5.918
   6   7 N      1.854     0.033    21.337     6.846
   7   6 C      2.846    -0.002    28.067     8.683
   8   1 H      0.860     0.176     1.239     1.744
   9   1 H      0.924     0.086     1.919     2.166

 Mol. C6AA /au·bohr⁶  :       1298.376322
 Mol. C8AA /au·bohr⁸  :      29675.044293
 Mol. α(0) /au        :         54.490962


Wiberg/Mayer (AO) data.
largest (>0.10) Wiberg bond orders for each atom
          total WBO             WBO to atom ...
     1  N   3.112        C    2 1.796    H    8 0.938
     2  C   3.947        N    1 1.796    C    7 1.115    N    3 0.912
     3  N   3.763        N    4 2.349    C    2 0.912    O    5 0.325
     4  N   2.877        N    3 2.349    O    5 0.262
     5  O   2.244        N    6 1.333    N    3 0.325    N    4 0.262    C    7 0.182
     6  N   3.216        C    7 1.595    O    5 1.333
     7  C   3.963        N    6 1.595    C    2 1.115    H    9 0.955    O    5 0.182
     8  H   0.969        N    1 0.938
     9  H   0.993        C    7 0.955

molecular dipole:
                 x           y           z       tot (Debye)
 q only:       -0.312       0.888       0.076
   full:       -0.517       0.905      -0.051       2.653
molecular quadrupole (traceless):
                xx          xy          yy          xz          yz          zz
 q only:        3.452       2.403      -7.906       2.230      -0.120       4.455
  q+dip:        3.431       2.412     -10.351       2.423       0.454       6.920
   full:        2.974       2.158     -11.243       1.451       0.526       8.269


           -------------------------------------------------
          | TOTAL ENERGY              -20.855652508233 Eh   |
          | GRADIENT NORM               0.045553701866 Eh/α |
          | HOMO-LUMO GAP               0.705891559787 eV   |
           -------------------------------------------------

------------------------------------------------------------------------
 * finished run on 2021/06/02 at 10:00:07.878     
------------------------------------------------------------------------
 total:
 * wall-time:     0 d,  0 h,  0 min,  0.016 sec
 *  cpu-time:     0 d,  0 h,  0 min,  0.016 sec
 * ratio c/w:     0.987 speedup
 SCF:
 * wall-time:     0 d,  0 h,  0 min,  0.008 sec
 *  cpu-time:     0 d,  0 h,  0 min,  0.008 sec
 * ratio c/w:     1.000 speedup

