      -----------------------------------------------------------      
     |                   =====================                   |     
     |                           x T B                           |     
     |                   =====================                   |     
     |                         S. Grimme                         |     
     |          Mulliken Center for Theoretical Chemistry        |     
     |                    University of Bonn                     |     
     |                 Version 6.1.4 (SAW190525)                 |     
      -----------------------------------------------------------      

   This program is distributed in the hope that it will be useful,
   but WITHOUT ANY WARRANTY; without even the implied warranty of
   MERCHANTABILITY or FITNESS FOR A PARTICULAR PURPOSE.
   
   FOR NON-COMMERCIAL, ACADEMIA USE ONLY.
   
   Cite this work as:
   S. Grimme, C. Bannwarth, P. Shushkov, J. Comput. Theory Chem., 2017,
   13, 1989-2009. DOI: 10.1021/acs.jctc.7b00118
   C. Bannwarth, S. Ehlert and S. Grimme., J. Comput. Theory Chem., 2019,
   just accepted. DOI: 10.1021/acs.jctc.8b01176
   
   for sTDA-xTB:
   S. Grimme and C. Bannwarth, J. Chem. Phys., 2016, 145, 054103.
   DOI: 10.1063/1.4959605
   
   in the mass-spec context:
   V. Asgeirsson, C. Bauer and S. Grimme, Chem. Sci., 2017, 8, 4879.
   DOI: 10.1039/c7sc00601b
   
   for metadynamics refer to:
   S. Grimme, J. Chem. Theory Comput. Article ASAP, 2019,
   DOI: 10.1021/acs.jctc.9b00143
   
   with help from (in alphabetical order)
   C. Bannwarth, F. Bohle, G. Brandenburg, E. Caldeweyher, M. Checinski,
   S. Dohm, S. Ehlert, S. Ehrlich, F. März, H. Neugebauer, J. Pisarek,
   P. Pracht, P. Shushkov, and S. Spicher.
   
 * started run on 2021/06/02 at 10:00:07.406     

           -------------------------------------------------
          |                Calculation Setup                |
           -------------------------------------------------

          program call               : /groups/kemi/koerstz/opt/xtb/6.1/bin/xtb 17.xyz --gfn2 --acc 0.2 --chrg 0
          hostname                   : node305
          coordinate file            : 17.xyz
          omp threads                :                     1
          number of atoms            :                     9
          number of electrons        :                    36
          charge                     :                     0
          spin                       :                   0.0
          first test random number   :      0.70782172175350


########################################################################
# WARNING! Please study the warnings concerning your input carefully
#  - XTBPATH is not set, using XTBHOME instead
########################################################################

           ------------------------------------------------- 
          |                 G F N 2 - x T B                 |
          | Geometry, Frequencies, Noncovalent interactions |
          |            JCTC 2018 parametrisation            |
           ------------------------------------------------- 
             k(s)              :                1.8500
             k(p)              :                2.2300
             k(d)              :                2.2300
             k(f)              :                2.0000
             kEN (H0ij)        :               -2.0000
             D4 a1             :                0.5200
             D4 a2             :                5.0000
             D4 s6             :                1.0000
             D4 s8             :                2.7000
             D4 s9             :                5.0000
             alphaj            :                2.0000

  Z AO/shell   Hii/eV     exponent
  1     Wed Apr 25 08:07:45 CEST 2018   EN: 2.200 GM2: 0.406  GM3: 0.0800  RAES: 1.40
     1s    -10.707211    1.230000
  6     Wed Apr 25 08:07:45 CEST 2018   EN: 2.550 GM2: 0.538  GM3: 0.1500  RAES: 3.00
     2s    -13.970922    2.096432
     2p    -10.063292    1.800000
  7     Wed Apr 25 08:07:45 CEST 2018   EN: 3.040 GM2: 0.461  GM3:-0.0640  RAES: 1.90
     2s    -16.686243    2.339881
     2p    -12.523956    2.014332
  8     Wed Apr 25 08:07:45 CEST 2018   EN: 3.440 GM2: 0.452  GM3:-0.0517  RAES: 1.80
     2s    -20.229985    2.439742
     2p    -15.503117    2.137023


            Z     q(EN)     CN     RAES       Cart. coordinates
     1  N   5.0   -0.46    2.00    1.90    -1.21097     1.06322    -1.30900
     2  C   4.0    0.30    3.02    3.02    -0.41130    -0.92797    -0.26024
     3  N   5.0   -0.06    2.27    1.90    -1.48049    -3.40653    -0.70766
     4  N   5.0   -0.17    1.00    1.90    -3.26394    -4.58979    -0.47635
     5  O   6.0   -0.06    1.27    1.80     1.63719    -5.13084    -0.30621
     6  N   5.0   -0.18    2.02    1.90     2.83876    -3.53786     1.05040
     7  C   4.0    0.12    3.03    3.02     1.86470    -1.26629     1.22034
     8  H   1.0    0.33    1.00    1.43    -2.72373     0.92989    -2.50036
     9  H   1.0    0.17    0.99    1.43     2.70456     0.21398     2.38640

           ------------------------------------------------- 
          |        Self-Consistent Charge Iterations        |
           ------------------------------------------------- 
q/qsh data taken from xtbrestart
CAMM data taken from xtbrestart

          ...................................................
          :                      SETUP                      :
          :.................................................:
          :  # basis functions                  30          :
          :  # atomic orbitals                  30          :
          :  # shells                           16          :
          :  # electrons                        36          :
          :  max. iterations                   250          :
          :  Hamiltonian                  GFN2-xTB          :
          :  restarted?                       true          :
          :  GBSA solvation                  false          :
          :  PC potential                    false          :
          :  electronic temp.          300.0000000     K    :
          :  accuracy                    0.2000000          :
          :  -> integral cutoff          0.3198970E+02      :
          :  -> integral neglect         0.2000000E-08      :
          :  -> SCF convergence          0.2000000E-06 Eh   :
          :  -> wf. convergence          0.2000000E-04 e    :
          :  Broyden damping             0.4000000          :
          ...................................................

 iter      E             dE          RMSdq      gap      omega  full diag
   1    -21.0478998 -0.210479E+02  0.429E+00    1.63       0.0  T
   2    -21.0541121 -0.621228E-02  0.264E+00    0.87       1.0  T
   3    -21.0391524  0.149597E-01  0.202E+00    1.24       1.0  T
   4    -21.0677444 -0.285920E-01  0.483E-01    0.71       1.0  T
   5    -21.0689759 -0.123151E-02  0.138E-01    0.71       1.0  T
   6    -21.0689890 -0.131296E-04  0.756E-02    0.69       1.0  T
   7    -21.0690118 -0.227219E-04  0.317E-02    0.70       1.1  T
   8    -21.0690158 -0.405451E-05  0.103E-02    0.70       3.3  T
   9    -21.0690160 -0.148466E-06  0.528E-03    0.70       6.3  T
  10    -21.0690160 -0.507454E-07  0.191E-03    0.70      17.5  T
  11    -21.0690160 -0.152701E-07  0.892E-04    0.70      37.4  T
  12    -21.0690160 -0.100401E-08  0.211E-04    0.70     158.1  T
  13    -21.0690160 -0.114262E-09  0.959E-05    0.70     347.5  T
  14    -21.0690160 -0.410232E-10  0.157E-05    0.70    2124.0  T

   *** convergence criteria satisfied after 14 iterations ***

         #    Occupation            Energy/Eh            Energy/eV
      -------------------------------------------------------------
         1        2.0000           -0.7504175             -20.4199
       ...           ...                  ...                  ...
        12        2.0000           -0.5413085             -14.7298
        13        2.0000           -0.5271051             -14.3433
        14        2.0000           -0.5071444             -13.8001
        15        2.0000           -0.4961952             -13.5022
        16        2.0000           -0.4545137             -12.3679
        17        2.0000           -0.4325765             -11.7710
        18        2.0000           -0.3954431             -10.7606 (HOMO)
        19        0.0000           -0.3697590             -10.0617 (LUMO)
        20                         -0.3034293              -8.2567
        21                         -0.3013057              -8.1989
        22                         -0.2209241              -6.0116
        23                         -0.0174033              -0.4736
       ...                                ...                  ...
        30                          0.6963722              18.9493
      -------------------------------------------------------------
                  HL-Gap            0.0256841 Eh            0.6989 eV
             Fermi-level           -0.3826011 Eh          -10.4111 eV

 SCC (total)                   0 d,  0 h,  0 min,  0.008 sec
 SCC setup                      ...        0 min,  0.000 sec (  1.591%)
 Dispersion                     ...        0 min,  0.000 sec (  0.759%)
 integral evaluation            ...        0 min,  0.001 sec ( 14.258%)
 zeroth order Hamiltonian       ...        0 min,  0.000 sec (  0.404%)
 iterations                     ...        0 min,  0.004 sec ( 53.962%)
 molecular gradient             ...        0 min,  0.002 sec ( 26.066%)
 printout                       ...        0 min,  0.000 sec (  2.390%)

         :::::::::::::::::::::::::::::::::::::::::::::::::::::
         ::                     SUMMARY                     ::
         :::::::::::::::::::::::::::::::::::::::::::::::::::::
         :: total energy              -20.852642949113 Eh   ::
         :: gradient norm               0.045960742548 Eh/α ::
         :: HOMO-LUMO gap               0.698899300280 eV   ::
         ::.................................................::
         :: SCC energy                -21.069016025758 Eh   ::
         :: -> isotropic ES             0.030349636628 Eh   ::
         :: -> anisotropic ES           0.002630389642 Eh   ::
         :: -> anisotropic XC           0.031684591598 Eh   ::
         :: -> dispersion              -0.006075323802 Eh   ::
         :: repulsion energy            0.216369030079 Eh   ::
         :: add. restraining            0.000000000000 Eh   ::
         :::::::::::::::::::::::::::::::::::::::::::::::::::::

           -------------------------------------------------
          |                Property Printout                |
           -------------------------------------------------

    * Orbital Energies and Occupations

         #    Occupation            Energy/Eh            Energy/eV
      -------------------------------------------------------------
         1        2.0000           -0.7504175             -20.4199
       ...           ...                  ...                  ...
         6        2.0000           -0.6457398             -17.5715
         7        2.0000           -0.6272686             -17.0688
         8        2.0000           -0.6085136             -16.5585
         9        2.0000           -0.5830063             -15.8644
        10        2.0000           -0.5721253             -15.5683
        11        2.0000           -0.5514028             -15.0044
        12        2.0000           -0.5413085             -14.7298
        13        2.0000           -0.5271051             -14.3433
        14        2.0000           -0.5071444             -13.8001
        15        2.0000           -0.4961952             -13.5022
        16        2.0000           -0.4545137             -12.3679
        17        2.0000           -0.4325765             -11.7710
        18        2.0000           -0.3954431             -10.7606 (HOMO)
        19        0.0000           -0.3697590             -10.0617 (LUMO)
        20                         -0.3034293              -8.2567
        21                         -0.3013057              -8.1989
        22                         -0.2209241              -6.0116
        23                         -0.0174033              -0.4736
        24                          0.0371922               1.0121
        25                          0.0715005               1.9456
        26                          0.1911220               5.2007
        27                          0.3032392               8.2516
        28                          0.3656936               9.9510
        29                          0.5345727              14.5465
        30                          0.6963722              18.9493
      -------------------------------------------------------------
                  HL-Gap            0.0256841 Eh            0.6989 eV
             Fermi-level           -0.3826011 Eh          -10.4111 eV

   #   Z        covCN         q      C6AA      α(0)
   1   7 N      1.776    -0.273    27.910     7.823
   2   6 C      2.821     0.170    24.332     8.082
   3   7 N      2.143     0.204    18.280     6.344
   4   7 N      0.983    -0.097    22.785     6.866
   5   8 O      1.174    -0.295    19.532     5.934
   6   7 N      1.854     0.032    21.368     6.851
   7   6 C      2.848    -0.002    28.058     8.681
   8   1 H      0.860     0.176     1.238     1.743
   9   1 H      0.924     0.086     1.920     2.167

 Mol. C6AA /au·bohr⁶  :       1298.585368
 Mol. C8AA /au·bohr⁸  :      29677.857600
 Mol. α(0) /au        :         54.492641


Wiberg/Mayer (AO) data.
largest (>0.10) Wiberg bond orders for each atom
          total WBO             WBO to atom ...
     1  N   3.113        C    2 1.806    H    8 0.937
     2  C   3.945        N    1 1.806    C    7 1.104    N    3 0.912
     3  N   3.762        N    4 2.354    C    2 0.912    O    5 0.319
     4  N   2.885        N    3 2.354    O    5 0.262
     5  O   2.233        N    6 1.330    N    3 0.319    N    4 0.262    C    7 0.182
     6  N   3.211        C    7 1.597    O    5 1.330
     7  C   3.963        N    6 1.597    C    2 1.104    H    9 0.955    O    5 0.182
     8  H   0.969        N    1 0.937
     9  H   0.993        C    7 0.955

molecular dipole:
                 x           y           z       tot (Debye)
 q only:       -0.367       0.891       0.102
   full:       -0.583       0.915      -0.032       2.758
molecular quadrupole (traceless):
                xx          xy          yy          xz          yz          zz
 q only:        3.356       2.638      -7.895       2.457      -0.366       4.538
  q+dip:        3.282       2.660     -10.405       2.799       0.250       7.122
   full:        2.901       2.409     -11.304       1.931       0.366       8.403


           -------------------------------------------------
          | TOTAL ENERGY              -20.852642949113 Eh   |
          | GRADIENT NORM               0.045960742548 Eh/α |
          | HOMO-LUMO GAP               0.698899300280 eV   |
           -------------------------------------------------

------------------------------------------------------------------------
 * finished run on 2021/06/02 at 10:00:07.423     
------------------------------------------------------------------------
 total:
 * wall-time:     0 d,  0 h,  0 min,  0.016 sec
 *  cpu-time:     0 d,  0 h,  0 min,  0.016 sec
 * ratio c/w:     0.987 speedup
 SCF:
 * wall-time:     0 d,  0 h,  0 min,  0.008 sec
 *  cpu-time:     0 d,  0 h,  0 min,  0.008 sec
 * ratio c/w:     0.999 speedup

