      -----------------------------------------------------------      
     |                   =====================                   |     
     |                           x T B                           |     
     |                   =====================                   |     
     |                         S. Grimme                         |     
     |          Mulliken Center for Theoretical Chemistry        |     
     |                    University of Bonn                     |     
     |                 Version 6.1.4 (SAW190525)                 |     
      -----------------------------------------------------------      

   This program is distributed in the hope that it will be useful,
   but WITHOUT ANY WARRANTY; without even the implied warranty of
   MERCHANTABILITY or FITNESS FOR A PARTICULAR PURPOSE.
   
   FOR NON-COMMERCIAL, ACADEMIA USE ONLY.
   
   Cite this work as:
   S. Grimme, C. Bannwarth, P. Shushkov, J. Comput. Theory Chem., 2017,
   13, 1989-2009. DOI: 10.1021/acs.jctc.7b00118
   C. Bannwarth, S. Ehlert and S. Grimme., J. Comput. Theory Chem., 2019,
   just accepted. DOI: 10.1021/acs.jctc.8b01176
   
   for sTDA-xTB:
   S. Grimme and C. Bannwarth, J. Chem. Phys., 2016, 145, 054103.
   DOI: 10.1063/1.4959605
   
   in the mass-spec context:
   V. Asgeirsson, C. Bauer and S. Grimme, Chem. Sci., 2017, 8, 4879.
   DOI: 10.1039/c7sc00601b
   
   for metadynamics refer to:
   S. Grimme, J. Chem. Theory Comput. Article ASAP, 2019,
   DOI: 10.1021/acs.jctc.9b00143
   
   with help from (in alphabetical order)
   C. Bannwarth, F. Bohle, G. Brandenburg, E. Caldeweyher, M. Checinski,
   S. Dohm, S. Ehlert, S. Ehrlich, F. März, H. Neugebauer, J. Pisarek,
   P. Pracht, P. Shushkov, and S. Spicher.
   
 * started run on 2021/06/02 at 10:00:08.367     

           -------------------------------------------------
          |                Calculation Setup                |
           -------------------------------------------------

          program call               : /groups/kemi/koerstz/opt/xtb/6.1/bin/xtb 2.xyz --gfn2 --acc 0.2 --chrg 0
          hostname                   : node305
          coordinate file            : 2.xyz
          omp threads                :                     1
          number of atoms            :                     9
          number of electrons        :                    36
          charge                     :                     0
          spin                       :                   0.0
          first test random number   :      0.47296296814543


########################################################################
# WARNING! Please study the warnings concerning your input carefully
#  - XTBPATH is not set, using XTBHOME instead
########################################################################

           ------------------------------------------------- 
          |                 G F N 2 - x T B                 |
          | Geometry, Frequencies, Noncovalent interactions |
          |            JCTC 2018 parametrisation            |
           ------------------------------------------------- 
             k(s)              :                1.8500
             k(p)              :                2.2300
             k(d)              :                2.2300
             k(f)              :                2.0000
             kEN (H0ij)        :               -2.0000
             D4 a1             :                0.5200
             D4 a2             :                5.0000
             D4 s6             :                1.0000
             D4 s8             :                2.7000
             D4 s9             :                5.0000
             alphaj            :                2.0000

  Z AO/shell   Hii/eV     exponent
  1     Wed Apr 25 08:07:45 CEST 2018   EN: 2.200 GM2: 0.406  GM3: 0.0800  RAES: 1.40
     1s    -10.707211    1.230000
  6     Wed Apr 25 08:07:45 CEST 2018   EN: 2.550 GM2: 0.538  GM3: 0.1500  RAES: 3.00
     2s    -13.970922    2.096432
     2p    -10.063292    1.800000
  7     Wed Apr 25 08:07:45 CEST 2018   EN: 3.040 GM2: 0.461  GM3:-0.0640  RAES: 1.90
     2s    -16.686243    2.339881
     2p    -12.523956    2.014332
  8     Wed Apr 25 08:07:45 CEST 2018   EN: 3.440 GM2: 0.452  GM3:-0.0517  RAES: 1.80
     2s    -20.229985    2.439742
     2p    -15.503117    2.137023


            Z     q(EN)     CN     RAES       Cart. coordinates
     1  N   5.0   -0.46    2.00    1.90    -1.42590     1.02039    -1.00380
     2  C   4.0    0.30    3.03    3.02    -0.31844    -0.95115    -0.29161
     3  N   5.0   -0.04    2.46    1.90    -1.31242    -3.44156    -0.79822
     4  N   5.0   -0.19    1.00    1.90    -3.00792    -4.39443    -1.70511
     5  O   6.0   -0.04    1.47    1.80     1.19817    -5.23731     0.67958
     6  N   5.0   -0.19    2.03    1.90     2.68883    -3.53458     1.46254
     7  C   4.0    0.12    3.04    3.02     2.03344    -1.22459     1.03852
     8  H   1.0    0.33    1.00    1.43    -3.08740     0.79321    -1.94442
     9  H   1.0    0.17    1.00    1.43     3.18644     0.31783     1.65983

           ------------------------------------------------- 
          |        Self-Consistent Charge Iterations        |
           ------------------------------------------------- 
q/qsh data taken from xtbrestart
CAMM data taken from xtbrestart

          ...................................................
          :                      SETUP                      :
          :.................................................:
          :  # basis functions                  30          :
          :  # atomic orbitals                  30          :
          :  # shells                           16          :
          :  # electrons                        36          :
          :  max. iterations                   250          :
          :  Hamiltonian                  GFN2-xTB          :
          :  restarted?                       true          :
          :  GBSA solvation                  false          :
          :  PC potential                    false          :
          :  electronic temp.          300.0000000     K    :
          :  accuracy                    0.2000000          :
          :  -> integral cutoff          0.3198970E+02      :
          :  -> integral neglect         0.2000000E-08      :
          :  -> SCF convergence          0.2000000E-06 Eh   :
          :  -> wf. convergence          0.2000000E-04 e    :
          :  Broyden damping             0.4000000          :
          ...................................................

 iter      E             dE          RMSdq      gap      omega  full diag
   1    -21.0597923 -0.210598E+02  0.643E+00    2.06       0.0  T
   2    -21.0769714 -0.171791E-01  0.376E+00    1.17       1.0  T
   3    -21.0578602  0.191112E-01  0.276E+00    1.41       1.0  T
   4    -21.0984622 -0.406020E-01  0.515E-01    0.79       1.0  T
   5    -21.0998136 -0.135141E-02  0.183E-01    0.80       1.0  T
   6    -21.0998339 -0.203120E-04  0.100E-01    0.79       1.0  T
   7    -21.0998714 -0.374847E-04  0.312E-02    0.80       1.1  T
   8    -21.0998738 -0.237219E-05  0.139E-02    0.79       2.4  T
   9    -21.0998741 -0.305201E-06  0.678E-03    0.79       4.9  T
  10    -21.0998742 -0.861353E-07  0.281E-03    0.79      11.9  T
  11    -21.0998742 -0.281808E-07  0.124E-03    0.79      26.9  T
  12    -21.0998742 -0.180658E-08  0.219E-04    0.79     152.4  T
  13    -21.0998742 -0.236184E-10  0.972E-05    0.79     343.0  T
  14    -21.0998742 -0.293916E-10  0.162E-05    0.79    2055.3  T

   *** convergence criteria satisfied after 14 iterations ***

         #    Occupation            Energy/Eh            Energy/eV
      -------------------------------------------------------------
         1        2.0000           -0.7593956             -20.6642
       ...           ...                  ...                  ...
        12        2.0000           -0.5394873             -14.6802
        13        2.0000           -0.5325782             -14.4922
        14        2.0000           -0.5023897             -13.6707
        15        2.0000           -0.4946292             -13.4595
        16        2.0000           -0.4561766             -12.4132
        17        2.0000           -0.4401676             -11.9776
        18        2.0000           -0.3978249             -10.8254 (HOMO)
        19        0.0000           -0.3687117             -10.0332 (LUMO)
        20                         -0.2932534              -7.9798
        21                         -0.2861650              -7.7869
        22                         -0.1992706              -5.4224
        23                         -0.0069427              -0.1889
       ...                                ...                  ...
        30                          0.7389118              20.1068
      -------------------------------------------------------------
                  HL-Gap            0.0291133 Eh            0.7922 eV
             Fermi-level           -0.3832683 Eh          -10.4293 eV

 SCC (total)                   0 d,  0 h,  0 min,  0.008 sec
 SCC setup                      ...        0 min,  0.000 sec (  1.593%)
 Dispersion                     ...        0 min,  0.000 sec (  0.731%)
 integral evaluation            ...        0 min,  0.001 sec ( 14.262%)
 zeroth order Hamiltonian       ...        0 min,  0.000 sec (  0.407%)
 iterations                     ...        0 min,  0.004 sec ( 54.338%)
 molecular gradient             ...        0 min,  0.002 sec ( 26.135%)
 printout                       ...        0 min,  0.000 sec (  2.112%)

         :::::::::::::::::::::::::::::::::::::::::::::::::::::
         ::                     SUMMARY                     ::
         :::::::::::::::::::::::::::::::::::::::::::::::::::::
         :: total energy              -20.867189761786 Eh   ::
         :: gradient norm               0.003470583837 Eh/α ::
         :: HOMO-LUMO gap               0.792211976338 eV   ::
         ::.................................................::
         :: SCC energy                -21.099874207099 Eh   ::
         :: -> isotropic ES             0.027516795199 Eh   ::
         :: -> anisotropic ES           0.003495590301 Eh   ::
         :: -> anisotropic XC           0.029866708687 Eh   ::
         :: -> dispersion              -0.006055011021 Eh   ::
         :: repulsion energy            0.232681324955 Eh   ::
         :: add. restraining            0.000000000000 Eh   ::
         :::::::::::::::::::::::::::::::::::::::::::::::::::::

           -------------------------------------------------
          |                Property Printout                |
           -------------------------------------------------

    * Orbital Energies and Occupations

         #    Occupation            Energy/Eh            Energy/eV
      -------------------------------------------------------------
         1        2.0000           -0.7593956             -20.6642
       ...           ...                  ...                  ...
         6        2.0000           -0.6533826             -17.7794
         7        2.0000           -0.6258811             -17.0311
         8        2.0000           -0.6163264             -16.7711
         9        2.0000           -0.5841383             -15.8952
        10        2.0000           -0.5790198             -15.7559
        11        2.0000           -0.5538400             -15.0708
        12        2.0000           -0.5394873             -14.6802
        13        2.0000           -0.5325782             -14.4922
        14        2.0000           -0.5023897             -13.6707
        15        2.0000           -0.4946292             -13.4595
        16        2.0000           -0.4561766             -12.4132
        17        2.0000           -0.4401676             -11.9776
        18        2.0000           -0.3978249             -10.8254 (HOMO)
        19        0.0000           -0.3687117             -10.0332 (LUMO)
        20                         -0.2932534              -7.9798
        21                         -0.2861650              -7.7869
        22                         -0.1992706              -5.4224
        23                         -0.0069427              -0.1889
        24                          0.0503904               1.3712
        25                          0.0932937               2.5387
        26                          0.2168733               5.9014
        27                          0.3178519               8.6492
        28                          0.4075404              11.0897
        29                          0.5514561              15.0059
        30                          0.7389118              20.1068
      -------------------------------------------------------------
                  HL-Gap            0.0291133 Eh            0.7922 eV
             Fermi-level           -0.3832683 Eh          -10.4293 eV

   #   Z        covCN         q      C6AA      α(0)
   1   7 N      1.778    -0.271    27.857     7.816
   2   6 C      2.828     0.163    24.470     8.106
   3   7 N      2.318     0.216    17.867     6.275
   4   7 N      0.985    -0.133    23.493     6.971
   5   8 O      1.353    -0.271    18.860     5.844
   6   7 N      1.860     0.035    21.316     6.843
   7   6 C      2.857    -0.002    28.061     8.683
   8   1 H      0.860     0.178     1.223     1.733
   9   1 H      0.926     0.084     1.938     2.177

 Mol. C6AA /au·bohr⁶  :       1295.173484
 Mol. C8AA /au·bohr⁸  :      29610.006717
 Mol. α(0) /au        :         54.447832


Wiberg/Mayer (AO) data.
largest (>0.10) Wiberg bond orders for each atom
          total WBO             WBO to atom ...
     1  N   3.109        C    2 1.792    H    8 0.935    N    4 0.120
     2  C   3.953        N    1 1.792    C    7 1.123    N    3 0.919
     3  N   3.782        N    4 2.309    C    2 0.919    O    5 0.378
     4  N   2.829        N    3 2.309    O    5 0.266    N    1 0.120
     5  O   2.272        N    6 1.315    N    3 0.378    N    4 0.266    C    7 0.178
     6  N   3.222        C    7 1.623    O    5 1.315
     7  C   3.968        N    6 1.623    C    2 1.123    H    9 0.959    O    5 0.178
     8  H   0.968        N    1 0.935
     9  H   0.993        C    7 0.959

molecular dipole:
                 x           y           z       tot (Debye)
 q only:       -0.068       0.875      -0.065
   full:       -0.225       0.876      -0.151       2.329
molecular quadrupole (traceless):
                xx          xy          yy          xz          yz          zz
 q only:        4.383       1.038      -7.716       0.901       0.721       3.333
  q+dip:        5.041       1.063     -10.064       0.162       0.874       5.023
   full:        4.608       0.873     -10.950      -1.276       0.857       6.342


           -------------------------------------------------
          | TOTAL ENERGY              -20.867189761786 Eh   |
          | GRADIENT NORM               0.003470583837 Eh/α |
          | HOMO-LUMO GAP               0.792211976338 eV   |
           -------------------------------------------------

------------------------------------------------------------------------
 * finished run on 2021/06/02 at 10:00:08.382     
------------------------------------------------------------------------
 total:
 * wall-time:     0 d,  0 h,  0 min,  0.015 sec
 *  cpu-time:     0 d,  0 h,  0 min,  0.015 sec
 * ratio c/w:     0.986 speedup
 SCF:
 * wall-time:     0 d,  0 h,  0 min,  0.008 sec
 *  cpu-time:     0 d,  0 h,  0 min,  0.008 sec
 * ratio c/w:     1.000 speedup

