      -----------------------------------------------------------      
     |                   =====================                   |     
     |                           x T B                           |     
     |                   =====================                   |     
     |                         S. Grimme                         |     
     |          Mulliken Center for Theoretical Chemistry        |     
     |                    University of Bonn                     |     
     |                 Version 6.1.4 (SAW190525)                 |     
      -----------------------------------------------------------      

   This program is distributed in the hope that it will be useful,
   but WITHOUT ANY WARRANTY; without even the implied warranty of
   MERCHANTABILITY or FITNESS FOR A PARTICULAR PURPOSE.
   
   FOR NON-COMMERCIAL, ACADEMIA USE ONLY.
   
   Cite this work as:
   S. Grimme, C. Bannwarth, P. Shushkov, J. Comput. Theory Chem., 2017,
   13, 1989-2009. DOI: 10.1021/acs.jctc.7b00118
   C. Bannwarth, S. Ehlert and S. Grimme., J. Comput. Theory Chem., 2019,
   just accepted. DOI: 10.1021/acs.jctc.8b01176
   
   for sTDA-xTB:
   S. Grimme and C. Bannwarth, J. Chem. Phys., 2016, 145, 054103.
   DOI: 10.1063/1.4959605
   
   in the mass-spec context:
   V. Asgeirsson, C. Bauer and S. Grimme, Chem. Sci., 2017, 8, 4879.
   DOI: 10.1039/c7sc00601b
   
   for metadynamics refer to:
   S. Grimme, J. Chem. Theory Comput. Article ASAP, 2019,
   DOI: 10.1021/acs.jctc.9b00143
   
   with help from (in alphabetical order)
   C. Bannwarth, F. Bohle, G. Brandenburg, E. Caldeweyher, M. Checinski,
   S. Dohm, S. Ehlert, S. Ehrlich, F. März, H. Neugebauer, J. Pisarek,
   P. Pracht, P. Shushkov, and S. Spicher.
   
 * started run on 2021/06/02 at 10:00:07.995     

           -------------------------------------------------
          |                Calculation Setup                |
           -------------------------------------------------

          program call               : /groups/kemi/koerstz/opt/xtb/6.1/bin/xtb 20.xyz --gfn2 --acc 0.2 --chrg 0
          hostname                   : node305
          coordinate file            : 20.xyz
          omp threads                :                     1
          number of atoms            :                     9
          number of electrons        :                    36
          charge                     :                     0
          spin                       :                   0.0
          first test random number   :      0.82338682328718


########################################################################
# WARNING! Please study the warnings concerning your input carefully
#  - XTBPATH is not set, using XTBHOME instead
########################################################################

           ------------------------------------------------- 
          |                 G F N 2 - x T B                 |
          | Geometry, Frequencies, Noncovalent interactions |
          |            JCTC 2018 parametrisation            |
           ------------------------------------------------- 
             k(s)              :                1.8500
             k(p)              :                2.2300
             k(d)              :                2.2300
             k(f)              :                2.0000
             kEN (H0ij)        :               -2.0000
             D4 a1             :                0.5200
             D4 a2             :                5.0000
             D4 s6             :                1.0000
             D4 s8             :                2.7000
             D4 s9             :                5.0000
             alphaj            :                2.0000

  Z AO/shell   Hii/eV     exponent
  1     Wed Apr 25 08:07:45 CEST 2018   EN: 2.200 GM2: 0.406  GM3: 0.0800  RAES: 1.40
     1s    -10.707211    1.230000
  6     Wed Apr 25 08:07:45 CEST 2018   EN: 2.550 GM2: 0.538  GM3: 0.1500  RAES: 3.00
     2s    -13.970922    2.096432
     2p    -10.063292    1.800000
  7     Wed Apr 25 08:07:45 CEST 2018   EN: 3.040 GM2: 0.461  GM3:-0.0640  RAES: 1.90
     2s    -16.686243    2.339881
     2p    -12.523956    2.014332
  8     Wed Apr 25 08:07:45 CEST 2018   EN: 3.440 GM2: 0.452  GM3:-0.0517  RAES: 1.80
     2s    -20.229985    2.439742
     2p    -15.503117    2.137023


            Z     q(EN)     CN     RAES       Cart. coordinates
     1  N   5.0   -0.46    2.00    1.90    -1.14285     1.07154    -1.39961
     2  C   4.0    0.30    3.02    3.02    -0.44053    -0.91424    -0.27829
     3  N   5.0   -0.07    2.23    1.90    -1.53746    -3.37975    -0.67071
     4  N   5.0   -0.16    1.00    1.90    -3.19153    -4.67432    -0.21276
     5  O   6.0   -0.06    1.23    1.80     1.67737    -5.05805    -0.51196
     6  N   5.0   -0.17    2.02    1.90     2.84501    -3.53538     0.97060
     7  C   4.0    0.13    3.03    3.02     1.83291    -1.28977     1.23798
     8  H   1.0    0.33    1.00    1.43    -2.65654     0.98245    -2.58343
     9  H   1.0    0.17    0.99    1.43     2.56840     0.14532     2.54551

           ------------------------------------------------- 
          |        Self-Consistent Charge Iterations        |
           ------------------------------------------------- 
q/qsh data taken from xtbrestart
CAMM data taken from xtbrestart

          ...................................................
          :                      SETUP                      :
          :.................................................:
          :  # basis functions                  30          :
          :  # atomic orbitals                  30          :
          :  # shells                           16          :
          :  # electrons                        36          :
          :  max. iterations                   250          :
          :  Hamiltonian                  GFN2-xTB          :
          :  restarted?                       true          :
          :  GBSA solvation                  false          :
          :  PC potential                    false          :
          :  electronic temp.          300.0000000     K    :
          :  accuracy                    0.2000000          :
          :  -> integral cutoff          0.3198970E+02      :
          :  -> integral neglect         0.2000000E-08      :
          :  -> SCF convergence          0.2000000E-06 Eh   :
          :  -> wf. convergence          0.2000000E-04 e    :
          :  Broyden damping             0.4000000          :
          ...................................................

 iter      E             dE          RMSdq      gap      omega  full diag
   1    -20.9918299 -0.209918E+02  0.635E+00    1.97       0.0  T
   2    -20.9907704  0.105950E-02  0.384E+00    0.53       1.0  T
   3    -21.0041802 -0.134098E-01  0.326E+00    1.46       1.0  T
   4    -21.0592738 -0.550936E-01  0.734E-01    0.72       1.0  T
   5    -21.0616099 -0.233612E-02  0.237E-01    0.68       1.0  T
   6    -21.0615951  0.148299E-04  0.126E-01    0.66       1.0  T
   7    -21.0616669 -0.718388E-04  0.523E-02    0.67       1.0  T
   8    -21.0616728 -0.583936E-05  0.201E-02    0.66       1.7  T
   9    -21.0616735 -0.709746E-06  0.108E-02    0.67       3.1  T
  10    -21.0616737 -0.175636E-06  0.178E-03    0.67      18.7  T
  11    -21.0616737  0.148640E-08  0.886E-04    0.67      37.6  T
  12    -21.0616737 -0.395773E-08  0.276E-04    0.67     120.6  T
  13    -21.0616737 -0.380396E-09  0.105E-04    0.67     317.8  T
  14    -21.0616737 -0.145448E-10  0.217E-05    0.67    1535.1  T

   *** convergence criteria satisfied after 14 iterations ***

         #    Occupation            Energy/Eh            Energy/eV
      -------------------------------------------------------------
         1        2.0000           -0.7506229             -20.4255
       ...           ...                  ...                  ...
        12        2.0000           -0.5405868             -14.7101
        13        2.0000           -0.5255730             -14.3016
        14        2.0000           -0.5105753             -13.8935
        15        2.0000           -0.4937492             -13.4356
        16        2.0000           -0.4539543             -12.3527
        17        2.0000           -0.4306132             -11.7176
        18        2.0000           -0.3943928             -10.7320 (HOMO)
        19        0.0000           -0.3699120             -10.0658 (LUMO)
        20                         -0.3084035              -8.3921
        21                         -0.3009583              -8.1895
        22                         -0.2257872              -6.1440
        23                         -0.0164302              -0.4471
       ...                                ...                  ...
        30                          0.7004899              19.0613
      -------------------------------------------------------------
                  HL-Gap            0.0244807 Eh            0.6662 eV
             Fermi-level           -0.3821524 Eh          -10.3989 eV

 SCC (total)                   0 d,  0 h,  0 min,  0.008 sec
 SCC setup                      ...        0 min,  0.000 sec (  1.647%)
 Dispersion                     ...        0 min,  0.000 sec (  0.794%)
 integral evaluation            ...        0 min,  0.001 sec ( 14.242%)
 zeroth order Hamiltonian       ...        0 min,  0.000 sec (  0.424%)
 iterations                     ...        0 min,  0.004 sec ( 54.283%)
 molecular gradient             ...        0 min,  0.002 sec ( 25.929%)
 printout                       ...        0 min,  0.000 sec (  2.242%)

         :::::::::::::::::::::::::::::::::::::::::::::::::::::
         ::                     SUMMARY                     ::
         :::::::::::::::::::::::::::::::::::::::::::::::::::::
         :: total energy              -20.846365525885 Eh   ::
         :: gradient norm               0.050954701008 Eh/α ::
         :: HOMO-LUMO gap               0.666154513137 eV   ::
         ::.................................................::
         :: SCC energy                -21.061673676581 Eh   ::
         :: -> isotropic ES             0.031974013312 Eh   ::
         :: -> anisotropic ES           0.002306038515 Eh   ::
         :: -> anisotropic XC           0.032252591821 Eh   ::
         :: -> dispersion              -0.006089938504 Eh   ::
         :: repulsion energy            0.215303856197 Eh   ::
         :: add. restraining            0.000000000000 Eh   ::
         :::::::::::::::::::::::::::::::::::::::::::::::::::::

           -------------------------------------------------
          |                Property Printout                |
           -------------------------------------------------

    * Orbital Energies and Occupations

         #    Occupation            Energy/Eh            Energy/eV
      -------------------------------------------------------------
         1        2.0000           -0.7506229             -20.4255
       ...           ...                  ...                  ...
         6        2.0000           -0.6436547             -17.5147
         7        2.0000           -0.6281520             -17.0929
         8        2.0000           -0.6078985             -16.5418
         9        2.0000           -0.5830570             -15.8658
        10        2.0000           -0.5696251             -15.5003
        11        2.0000           -0.5510910             -14.9959
        12        2.0000           -0.5405868             -14.7101
        13        2.0000           -0.5255730             -14.3016
        14        2.0000           -0.5105753             -13.8935
        15        2.0000           -0.4937492             -13.4356
        16        2.0000           -0.4539543             -12.3527
        17        2.0000           -0.4306132             -11.7176
        18        2.0000           -0.3943928             -10.7320 (HOMO)
        19        0.0000           -0.3699120             -10.0658 (LUMO)
        20                         -0.3084035              -8.3921
        21                         -0.3009583              -8.1895
        22                         -0.2257872              -6.1440
        23                         -0.0164302              -0.4471
        24                          0.0335530               0.9130
        25                          0.0621861               1.6922
        26                          0.1812470               4.9320
        27                          0.3009734               8.1899
        28                          0.3569128               9.7121
        29                          0.5387359              14.6597
        30                          0.7004899              19.0613
      -------------------------------------------------------------
                  HL-Gap            0.0244807 Eh            0.6662 eV
             Fermi-level           -0.3821524 Eh          -10.3989 eV

   #   Z        covCN         q      C6AA      α(0)
   1   7 N      1.775    -0.272    27.884     7.820
   2   6 C      2.818     0.172    24.287     8.075
   3   7 N      2.105     0.204    18.328     6.352
   4   7 N      0.983    -0.088    22.596     6.837
   5   8 O      1.135    -0.307    19.774     5.969
   6   7 N      1.852     0.029    21.425     6.860
   7   6 C      2.849     0.000    28.012     8.674
   8   1 H      0.860     0.177     1.232     1.739
   9   1 H      0.923     0.085     1.928     2.171

 Mol. C6AA /au·bohr⁶  :       1299.158103
 Mol. C8AA /au·bohr⁸  :      29686.645851
 Mol. α(0) /au        :         54.497717


Wiberg/Mayer (AO) data.
largest (>0.10) Wiberg bond orders for each atom
          total WBO             WBO to atom ...
     1  N   3.112        C    2 1.825    H    8 0.937
     2  C   3.943        N    1 1.825    C    7 1.080    N    3 0.916
     3  N   3.760        N    4 2.365    C    2 0.916    O    5 0.304
     4  N   2.902        N    3 2.365    O    5 0.262
     5  O   2.210        N    6 1.326    N    3 0.304    N    4 0.262    C    7 0.182
     6  N   3.202        C    7 1.604    O    5 1.326
     7  C   3.961        N    6 1.604    C    2 1.080    H    9 0.953    O    5 0.182
     8  H   0.969        N    1 0.937
     9  H   0.993        C    7 0.953

molecular dipole:
                 x           y           z       tot (Debye)
 q only:       -0.483       0.910       0.160
   full:       -0.730       0.951       0.028       3.049
molecular quadrupole (traceless):
                xx          xy          yy          xz          yz          zz
 q only:        3.363       3.063      -7.931       2.775      -0.726       4.568
  q+dip:        3.291       3.067     -10.544       3.304       0.014       7.253
   full:        3.087       2.818     -11.480       2.583       0.226       8.393


           -------------------------------------------------
          | TOTAL ENERGY              -20.846365525885 Eh   |
          | GRADIENT NORM               0.050954701008 Eh/α |
          | HOMO-LUMO GAP               0.666154513137 eV   |
           -------------------------------------------------

------------------------------------------------------------------------
 * finished run on 2021/06/02 at 10:00:08.011     
------------------------------------------------------------------------
 total:
 * wall-time:     0 d,  0 h,  0 min,  0.015 sec
 *  cpu-time:     0 d,  0 h,  0 min,  0.015 sec
 * ratio c/w:     0.986 speedup
 SCF:
 * wall-time:     0 d,  0 h,  0 min,  0.008 sec
 *  cpu-time:     0 d,  0 h,  0 min,  0.008 sec
 * ratio c/w:     1.000 speedup

