      -----------------------------------------------------------      
     |                   =====================                   |     
     |                           x T B                           |     
     |                   =====================                   |     
     |                         S. Grimme                         |     
     |          Mulliken Center for Theoretical Chemistry        |     
     |                    University of Bonn                     |     
     |                 Version 6.1.4 (SAW190525)                 |     
      -----------------------------------------------------------      

   This program is distributed in the hope that it will be useful,
   but WITHOUT ANY WARRANTY; without even the implied warranty of
   MERCHANTABILITY or FITNESS FOR A PARTICULAR PURPOSE.
   
   FOR NON-COMMERCIAL, ACADEMIA USE ONLY.
   
   Cite this work as:
   S. Grimme, C. Bannwarth, P. Shushkov, J. Comput. Theory Chem., 2017,
   13, 1989-2009. DOI: 10.1021/acs.jctc.7b00118
   C. Bannwarth, S. Ehlert and S. Grimme., J. Comput. Theory Chem., 2019,
   just accepted. DOI: 10.1021/acs.jctc.8b01176
   
   for sTDA-xTB:
   S. Grimme and C. Bannwarth, J. Chem. Phys., 2016, 145, 054103.
   DOI: 10.1063/1.4959605
   
   in the mass-spec context:
   V. Asgeirsson, C. Bauer and S. Grimme, Chem. Sci., 2017, 8, 4879.
   DOI: 10.1039/c7sc00601b
   
   for metadynamics refer to:
   S. Grimme, J. Chem. Theory Comput. Article ASAP, 2019,
   DOI: 10.1021/acs.jctc.9b00143
   
   with help from (in alphabetical order)
   C. Bannwarth, F. Bohle, G. Brandenburg, E. Caldeweyher, M. Checinski,
   S. Dohm, S. Ehlert, S. Ehrlich, F. März, H. Neugebauer, J. Pisarek,
   P. Pracht, P. Shushkov, and S. Spicher.
   
 * started run on 2021/06/02 at 10:00:08.537     

           -------------------------------------------------
          |                Calculation Setup                |
           -------------------------------------------------

          program call               : /groups/kemi/koerstz/opt/xtb/6.1/bin/xtb 21.xyz --gfn2 --acc 0.2 --chrg 0
          hostname                   : node305
          coordinate file            : 21.xyz
          omp threads                :                     1
          number of atoms            :                     9
          number of electrons        :                    36
          charge                     :                     0
          spin                       :                   0.0
          first test random number   :      0.25331028529041


########################################################################
# WARNING! Please study the warnings concerning your input carefully
#  - XTBPATH is not set, using XTBHOME instead
########################################################################

           ------------------------------------------------- 
          |                 G F N 2 - x T B                 |
          | Geometry, Frequencies, Noncovalent interactions |
          |            JCTC 2018 parametrisation            |
           ------------------------------------------------- 
             k(s)              :                1.8500
             k(p)              :                2.2300
             k(d)              :                2.2300
             k(f)              :                2.0000
             kEN (H0ij)        :               -2.0000
             D4 a1             :                0.5200
             D4 a2             :                5.0000
             D4 s6             :                1.0000
             D4 s8             :                2.7000
             D4 s9             :                5.0000
             alphaj            :                2.0000

  Z AO/shell   Hii/eV     exponent
  1     Wed Apr 25 08:07:45 CEST 2018   EN: 2.200 GM2: 0.406  GM3: 0.0800  RAES: 1.40
     1s    -10.707211    1.230000
  6     Wed Apr 25 08:07:45 CEST 2018   EN: 2.550 GM2: 0.538  GM3: 0.1500  RAES: 3.00
     2s    -13.970922    2.096432
     2p    -10.063292    1.800000
  7     Wed Apr 25 08:07:45 CEST 2018   EN: 3.040 GM2: 0.461  GM3:-0.0640  RAES: 1.90
     2s    -16.686243    2.339881
     2p    -12.523956    2.014332
  8     Wed Apr 25 08:07:45 CEST 2018   EN: 3.440 GM2: 0.452  GM3:-0.0517  RAES: 1.80
     2s    -20.229985    2.439742
     2p    -15.503117    2.137023


            Z     q(EN)     CN     RAES       Cart. coordinates
     1  N   5.0   -0.46    2.00    1.90    -1.14643     1.07713    -1.39107
     2  C   4.0    0.30    3.02    3.02    -0.43606    -0.91266    -0.29600
     3  N   5.0   -0.07    2.24    1.90    -1.52725    -3.38256    -0.68862
     4  N   5.0   -0.16    1.00    1.90    -3.17873    -4.67837    -0.20031
     5  O   6.0   -0.06    1.23    1.80     1.67650    -5.06884    -0.50115
     6  N   5.0   -0.17    2.02    1.90     2.83571    -3.53923     0.97635
     7  C   4.0    0.13    3.03    3.02     1.83519    -1.28437     1.21993
     8  H   1.0    0.33    1.00    1.43    -2.66269     0.98974    -2.56888
     9  H   1.0    0.17    0.99    1.43     2.55854     0.14695     2.54706

           ------------------------------------------------- 
          |        Self-Consistent Charge Iterations        |
           ------------------------------------------------- 
q/qsh data taken from xtbrestart
CAMM data taken from xtbrestart

          ...................................................
          :                      SETUP                      :
          :.................................................:
          :  # basis functions                  30          :
          :  # atomic orbitals                  30          :
          :  # shells                           16          :
          :  # electrons                        36          :
          :  max. iterations                   250          :
          :  Hamiltonian                  GFN2-xTB          :
          :  restarted?                       true          :
          :  GBSA solvation                  false          :
          :  PC potential                    false          :
          :  electronic temp.          300.0000000     K    :
          :  accuracy                    0.2000000          :
          :  -> integral cutoff          0.3198970E+02      :
          :  -> integral neglect         0.2000000E-08      :
          :  -> SCF convergence          0.2000000E-06 Eh   :
          :  -> wf. convergence          0.2000000E-04 e    :
          :  Broyden damping             0.4000000          :
          ...................................................

 iter      E             dE          RMSdq      gap      omega  full diag
   1    -21.0037190 -0.210037E+02  0.626E+00    1.84       0.0  T
   2    -21.0019538  0.176529E-02  0.370E+00    0.56       1.0  T
   3    -21.0004368  0.151697E-02  0.327E+00    1.44       1.0  T
   4    -21.0587011 -0.582643E-01  0.733E-01    0.72       1.0  T
   5    -21.0610406 -0.233954E-02  0.244E-01    0.68       1.0  T
   6    -21.0610280  0.126421E-04  0.131E-01    0.65       1.0  T
   7    -21.0611231 -0.951465E-04  0.527E-02    0.66       1.0  T
   8    -21.0611285 -0.534004E-05  0.219E-02    0.66       1.5  T
   9    -21.0611294 -0.976657E-06  0.114E-02    0.66       2.9  T
  10    -21.0611296 -0.184364E-06  0.272E-03    0.66      12.2  T
  11    -21.0611297 -0.351661E-07  0.119E-03    0.66      28.1  T
  12    -21.0611297 -0.776232E-10  0.495E-04    0.66      67.4  T
  13    -21.0611297 -0.186616E-08  0.108E-04    0.66     308.6  T
  14    -21.0611297 -0.186198E-10  0.247E-05    0.66    1351.3  T

   *** convergence criteria satisfied after 14 iterations ***

         #    Occupation            Energy/Eh            Energy/eV
      -------------------------------------------------------------
         1        2.0000           -0.7501863             -20.4136
       ...           ...                  ...                  ...
        12        2.0000           -0.5400309             -14.6950
        13        2.0000           -0.5263104             -14.3216
        14        2.0000           -0.5100742             -13.8798
        15        2.0000           -0.4940486             -13.4437
        16        2.0000           -0.4543758             -12.3642
        17        2.0000           -0.4307969             -11.7226
        18        2.0000           -0.3943909             -10.7319 (HOMO)
        19        0.0000           -0.3701812             -10.0731 (LUMO)
        20                         -0.3079943              -8.3810
        21                         -0.3014691              -8.2034
        22                         -0.2253583              -6.1323
        23                         -0.0163948              -0.4461
       ...                                ...                  ...
        30                          0.6906149              18.7926
      -------------------------------------------------------------
                  HL-Gap            0.0242097 Eh            0.6588 eV
             Fermi-level           -0.3822860 Eh          -10.4025 eV

 SCC (total)                   0 d,  0 h,  0 min,  0.008 sec
 SCC setup                      ...        0 min,  0.000 sec (  1.627%)
 Dispersion                     ...        0 min,  0.000 sec (  0.795%)
 integral evaluation            ...        0 min,  0.001 sec ( 13.998%)
 zeroth order Hamiltonian       ...        0 min,  0.000 sec (  0.398%)
 iterations                     ...        0 min,  0.004 sec ( 54.373%)
 molecular gradient             ...        0 min,  0.002 sec ( 26.136%)
 printout                       ...        0 min,  0.000 sec (  2.221%)

         :::::::::::::::::::::::::::::::::::::::::::::::::::::
         ::                     SUMMARY                     ::
         :::::::::::::::::::::::::::::::::::::::::::::::::::::
         :: total energy              -20.846267049166 Eh   ::
         :: gradient norm               0.052917347450 Eh/α ::
         :: HOMO-LUMO gap               0.658778434092 eV   ::
         ::.................................................::
         :: SCC energy                -21.061129662664 Eh   ::
         :: -> isotropic ES             0.031592538473 Eh   ::
         :: -> anisotropic ES           0.002389429453 Eh   ::
         :: -> anisotropic XC           0.032147547201 Eh   ::
         :: -> dispersion              -0.006090167983 Eh   ::
         :: repulsion energy            0.214858338030 Eh   ::
         :: add. restraining            0.000000000000 Eh   ::
         :::::::::::::::::::::::::::::::::::::::::::::::::::::

           -------------------------------------------------
          |                Property Printout                |
           -------------------------------------------------

    * Orbital Energies and Occupations

         #    Occupation            Energy/Eh            Energy/eV
      -------------------------------------------------------------
         1        2.0000           -0.7501863             -20.4136
       ...           ...                  ...                  ...
         6        2.0000           -0.6438116             -17.5190
         7        2.0000           -0.6274103             -17.0727
         8        2.0000           -0.6077507             -16.5377
         9        2.0000           -0.5831321             -15.8678
        10        2.0000           -0.5701173             -15.5137
        11        2.0000           -0.5508576             -14.9896
        12        2.0000           -0.5400309             -14.6950
        13        2.0000           -0.5263104             -14.3216
        14        2.0000           -0.5100742             -13.8798
        15        2.0000           -0.4940486             -13.4437
        16        2.0000           -0.4543758             -12.3642
        17        2.0000           -0.4307969             -11.7226
        18        2.0000           -0.3943909             -10.7319 (HOMO)
        19        0.0000           -0.3701812             -10.0731 (LUMO)
        20                         -0.3079943              -8.3810
        21                         -0.3014691              -8.2034
        22                         -0.2253583              -6.1323
        23                         -0.0163948              -0.4461
        24                          0.0351293               0.9559
        25                          0.0619966               1.6870
        26                          0.1815936               4.9414
        27                          0.3014870               8.2039
        28                          0.3569066               9.7119
        29                          0.5441464              14.8070
        30                          0.6906149              18.7926
      -------------------------------------------------------------
                  HL-Gap            0.0242097 Eh            0.6588 eV
             Fermi-level           -0.3822860 Eh          -10.4025 eV

   #   Z        covCN         q      C6AA      α(0)
   1   7 N      1.776    -0.272    27.877     7.819
   2   6 C      2.818     0.173    24.269     8.072
   3   7 N      2.109     0.201    18.371     6.359
   4   7 N      0.983    -0.089    22.623     6.842
   5   8 O      1.138    -0.304    19.721     5.961
   6   7 N      1.852     0.029    21.414     6.859
   7   6 C      2.848    -0.000    28.027     8.677
   8   1 H      0.860     0.177     1.231     1.738
   9   1 H      0.923     0.085     1.925     2.170

 Mol. C6AA /au·bohr⁶  :       1299.022269
 Mol. C8AA /au·bohr⁸  :      29684.543215
 Mol. α(0) /au        :         54.495669


Wiberg/Mayer (AO) data.
largest (>0.10) Wiberg bond orders for each atom
          total WBO             WBO to atom ...
     1  N   3.115        C    2 1.827    H    8 0.936
     2  C   3.943        N    1 1.827    C    7 1.081    N    3 0.913
     3  N   3.757        N    4 2.360    C    2 0.913    O    5 0.305
     4  N   2.899        N    3 2.360    O    5 0.262
     5  O   2.215        N    6 1.329    N    3 0.305    N    4 0.262    C    7 0.183
     6  N   3.203        C    7 1.601    O    5 1.329
     7  C   3.960        N    6 1.601    C    2 1.081    H    9 0.952    O    5 0.183
     8  H   0.969        N    1 0.936
     9  H   0.993        C    7 0.952

molecular dipole:
                 x           y           z       tot (Debye)
 q only:       -0.468       0.914       0.150
   full:       -0.715       0.954       0.013       3.031
molecular quadrupole (traceless):
                xx          xy          yy          xz          yz          zz
 q only:        3.361       2.965      -7.950       2.769      -0.680       4.589
  q+dip:        3.286       2.971     -10.566       3.295       0.096       7.281
   full:        3.099       2.730     -11.509       2.588       0.312       8.410


           -------------------------------------------------
          | TOTAL ENERGY              -20.846267049166 Eh   |
          | GRADIENT NORM               0.052917347450 Eh/α |
          | HOMO-LUMO GAP               0.658778434092 eV   |
           -------------------------------------------------

------------------------------------------------------------------------
 * finished run on 2021/06/02 at 10:00:08.553     
------------------------------------------------------------------------
 total:
 * wall-time:     0 d,  0 h,  0 min,  0.016 sec
 *  cpu-time:     0 d,  0 h,  0 min,  0.015 sec
 * ratio c/w:     0.980 speedup
 SCF:
 * wall-time:     0 d,  0 h,  0 min,  0.008 sec
 *  cpu-time:     0 d,  0 h,  0 min,  0.008 sec
 * ratio c/w:     1.000 speedup

