      -----------------------------------------------------------      
     |                   =====================                   |     
     |                           x T B                           |     
     |                   =====================                   |     
     |                         S. Grimme                         |     
     |          Mulliken Center for Theoretical Chemistry        |     
     |                    University of Bonn                     |     
     |                 Version 6.1.4 (SAW190525)                 |     
      -----------------------------------------------------------      

   This program is distributed in the hope that it will be useful,
   but WITHOUT ANY WARRANTY; without even the implied warranty of
   MERCHANTABILITY or FITNESS FOR A PARTICULAR PURPOSE.
   
   FOR NON-COMMERCIAL, ACADEMIA USE ONLY.
   
   Cite this work as:
   S. Grimme, C. Bannwarth, P. Shushkov, J. Comput. Theory Chem., 2017,
   13, 1989-2009. DOI: 10.1021/acs.jctc.7b00118
   C. Bannwarth, S. Ehlert and S. Grimme., J. Comput. Theory Chem., 2019,
   just accepted. DOI: 10.1021/acs.jctc.8b01176
   
   for sTDA-xTB:
   S. Grimme and C. Bannwarth, J. Chem. Phys., 2016, 145, 054103.
   DOI: 10.1063/1.4959605
   
   in the mass-spec context:
   V. Asgeirsson, C. Bauer and S. Grimme, Chem. Sci., 2017, 8, 4879.
   DOI: 10.1039/c7sc00601b
   
   for metadynamics refer to:
   S. Grimme, J. Chem. Theory Comput. Article ASAP, 2019,
   DOI: 10.1021/acs.jctc.9b00143
   
   with help from (in alphabetical order)
   C. Bannwarth, F. Bohle, G. Brandenburg, E. Caldeweyher, M. Checinski,
   S. Dohm, S. Ehlert, S. Ehrlich, F. März, H. Neugebauer, J. Pisarek,
   P. Pracht, P. Shushkov, and S. Spicher.
   
 * started run on 2021/06/02 at 10:00:07.672     

           -------------------------------------------------
          |                Calculation Setup                |
           -------------------------------------------------

          program call               : /groups/kemi/koerstz/opt/xtb/6.1/bin/xtb 22.xyz --gfn2 --acc 0.2 --chrg 0
          hostname                   : node305
          coordinate file            : 22.xyz
          omp threads                :                     1
          number of atoms            :                     9
          number of electrons        :                    36
          charge                     :                     0
          spin                       :                   0.0
          first test random number   :      0.30507556625242


########################################################################
# WARNING! Please study the warnings concerning your input carefully
#  - XTBPATH is not set, using XTBHOME instead
########################################################################

           ------------------------------------------------- 
          |                 G F N 2 - x T B                 |
          | Geometry, Frequencies, Noncovalent interactions |
          |            JCTC 2018 parametrisation            |
           ------------------------------------------------- 
             k(s)              :                1.8500
             k(p)              :                2.2300
             k(d)              :                2.2300
             k(f)              :                2.0000
             kEN (H0ij)        :               -2.0000
             D4 a1             :                0.5200
             D4 a2             :                5.0000
             D4 s6             :                1.0000
             D4 s8             :                2.7000
             D4 s9             :                5.0000
             alphaj            :                2.0000

  Z AO/shell   Hii/eV     exponent
  1     Wed Apr 25 08:07:45 CEST 2018   EN: 2.200 GM2: 0.406  GM3: 0.0800  RAES: 1.40
     1s    -10.707211    1.230000
  6     Wed Apr 25 08:07:45 CEST 2018   EN: 2.550 GM2: 0.538  GM3: 0.1500  RAES: 3.00
     2s    -13.970922    2.096432
     2p    -10.063292    1.800000
  7     Wed Apr 25 08:07:45 CEST 2018   EN: 3.040 GM2: 0.461  GM3:-0.0640  RAES: 1.90
     2s    -16.686243    2.339881
     2p    -12.523956    2.014332
  8     Wed Apr 25 08:07:45 CEST 2018   EN: 3.440 GM2: 0.452  GM3:-0.0517  RAES: 1.80
     2s    -20.229985    2.439742
     2p    -15.503117    2.137023


            Z     q(EN)     CN     RAES       Cart. coordinates
     1  N   5.0   -0.46    2.00    1.90    -1.13576     1.07457    -1.40425
     2  C   4.0    0.31    3.02    3.02    -0.43527    -0.91111    -0.31053
     3  N   5.0   -0.07    2.24    1.90    -1.52935    -3.38249    -0.69134
     4  N   5.0   -0.16    1.00    1.90    -3.16444    -4.68506    -0.16584
     5  O   6.0   -0.06    1.24    1.80     1.67616    -5.06156    -0.51616
     6  N   5.0   -0.17    2.02    1.90     2.83350    -3.53200     0.97038
     7  C   4.0    0.13    3.03    3.02     1.83195    -1.28466     1.21438
     8  H   1.0    0.33    1.00    1.43    -2.66299     0.99597    -2.56879
     9  H   1.0    0.17    0.99    1.43     2.54099     0.13414     2.56946

           ------------------------------------------------- 
          |        Self-Consistent Charge Iterations        |
           ------------------------------------------------- 
q/qsh data taken from xtbrestart
CAMM data taken from xtbrestart

          ...................................................
          :                      SETUP                      :
          :.................................................:
          :  # basis functions                  30          :
          :  # atomic orbitals                  30          :
          :  # shells                           16          :
          :  # electrons                        36          :
          :  max. iterations                   250          :
          :  Hamiltonian                  GFN2-xTB          :
          :  restarted?                       true          :
          :  GBSA solvation                  false          :
          :  PC potential                    false          :
          :  electronic temp.          300.0000000     K    :
          :  accuracy                    0.2000000          :
          :  -> integral cutoff          0.3198970E+02      :
          :  -> integral neglect         0.2000000E-08      :
          :  -> SCF convergence          0.2000000E-06 Eh   :
          :  -> wf. convergence          0.2000000E-04 e    :
          :  Broyden damping             0.4000000          :
          ...................................................

 iter      E             dE          RMSdq      gap      omega  full diag
   1    -20.9867076 -0.209867E+02  0.602E+00    2.06       0.0  T
   2    -20.9858186  0.889011E-03  0.400E+00    0.58       1.0  T
   3    -21.0195225 -0.337039E-01  0.287E+00    1.40       1.0  T
   4    -21.0597744 -0.402519E-01  0.610E-01    0.66       1.0  T
   5    -21.0616408 -0.186639E-02  0.202E-01    0.67       1.0  T
   6    -21.0616680 -0.272482E-04  0.108E-01    0.65       1.0  T
   7    -21.0617113 -0.432315E-04  0.386E-02    0.66       1.0  T
   8    -21.0617165 -0.518952E-05  0.146E-02    0.66       2.3  T
   9    -21.0617166 -0.111865E-06  0.785E-03    0.66       4.2  T
  10    -21.0617168 -0.260214E-06  0.242E-03    0.66      13.8  T
  11    -21.0617169 -0.118451E-07  0.119E-03    0.66      28.1  T
  12    -21.0617169 -0.490907E-08  0.286E-04    0.66     116.6  T
  13    -21.0617169 -0.713634E-10  0.114E-04    0.66     292.2  T
  14    -21.0617169 -0.848885E-10  0.360E-05    0.66     927.2  T

   *** convergence criteria satisfied after 14 iterations ***

         #    Occupation            Energy/Eh            Energy/eV
      -------------------------------------------------------------
         1        2.0000           -0.7501668             -20.4131
       ...           ...                  ...                  ...
        12        2.0000           -0.5394643             -14.6796
        13        2.0000           -0.5267141             -14.3326
        14        2.0000           -0.5102467             -13.8845
        15        2.0000           -0.4933805             -13.4256
        16        2.0000           -0.4548823             -12.3780
        17        2.0000           -0.4309925             -11.7279
        18        2.0000           -0.3942578             -10.7283 (HOMO)
        19        0.0000           -0.3701083             -10.0712 (LUMO)
        20                         -0.3078768              -8.3778
        21                         -0.3009327              -8.1888
        22                         -0.2252847              -6.1303
        23                         -0.0165232              -0.4496
       ...                                ...                  ...
        30                          0.6904293              18.7875
      -------------------------------------------------------------
                  HL-Gap            0.0241495 Eh            0.6571 eV
             Fermi-level           -0.3821830 Eh          -10.3997 eV

 SCC (total)                   0 d,  0 h,  0 min,  0.008 sec
 SCC setup                      ...        0 min,  0.000 sec (  1.616%)
 Dispersion                     ...        0 min,  0.000 sec (  0.741%)
 integral evaluation            ...        0 min,  0.001 sec ( 16.263%)
 zeroth order Hamiltonian       ...        0 min,  0.000 sec (  0.415%)
 iterations                     ...        0 min,  0.004 sec ( 52.798%)
 molecular gradient             ...        0 min,  0.002 sec ( 25.712%)
 printout                       ...        0 min,  0.000 sec (  1.981%)

         :::::::::::::::::::::::::::::::::::::::::::::::::::::
         ::                     SUMMARY                     ::
         :::::::::::::::::::::::::::::::::::::::::::::::::::::
         :: total energy              -20.845631052434 Eh   ::
         :: gradient norm               0.051936599443 Eh/α ::
         :: HOMO-LUMO gap               0.657140694206 eV   ::
         ::.................................................::
         :: SCC energy                -21.061716859721 Eh   ::
         :: -> isotropic ES             0.031854143209 Eh   ::
         :: -> anisotropic ES           0.002350234341 Eh   ::
         :: -> anisotropic XC           0.032133791748 Eh   ::
         :: -> dispersion              -0.006093641592 Eh   ::
         :: repulsion energy            0.216081526904 Eh   ::
         :: add. restraining            0.000000000000 Eh   ::
         :::::::::::::::::::::::::::::::::::::::::::::::::::::

           -------------------------------------------------
          |                Property Printout                |
           -------------------------------------------------

    * Orbital Energies and Occupations

         #    Occupation            Energy/Eh            Energy/eV
      -------------------------------------------------------------
         1        2.0000           -0.7501668             -20.4131
       ...           ...                  ...                  ...
         6        2.0000           -0.6437439             -17.5172
         7        2.0000           -0.6274010             -17.0725
         8        2.0000           -0.6077964             -16.5390
         9        2.0000           -0.5832901             -15.8721
        10        2.0000           -0.5697817             -15.5045
        11        2.0000           -0.5510192             -14.9940
        12        2.0000           -0.5394643             -14.6796
        13        2.0000           -0.5267141             -14.3326
        14        2.0000           -0.5102467             -13.8845
        15        2.0000           -0.4933805             -13.4256
        16        2.0000           -0.4548823             -12.3780
        17        2.0000           -0.4309925             -11.7279
        18        2.0000           -0.3942578             -10.7283 (HOMO)
        19        0.0000           -0.3701083             -10.0712 (LUMO)
        20                         -0.3078768              -8.3778
        21                         -0.3009327              -8.1888
        22                         -0.2252847              -6.1303
        23                         -0.0165232              -0.4496
        24                          0.0341652               0.9297
        25                          0.0596869               1.6242
        26                          0.1791902               4.8760
        27                          0.3026034               8.2343
        28                          0.3612472               9.8300
        29                          0.5524301              15.0324
        30                          0.6904293              18.7875
      -------------------------------------------------------------
                  HL-Gap            0.0241495 Eh            0.6571 eV
             Fermi-level           -0.3821830 Eh          -10.3997 eV

   #   Z        covCN         q      C6AA      α(0)
   1   7 N      1.776    -0.271    27.845     7.814
   2   6 C      2.819     0.174    24.248     8.068
   3   7 N      2.111     0.200    18.376     6.360
   4   7 N      0.983    -0.089    22.623     6.842
   5   8 O      1.141    -0.306    19.756     5.967
   6   7 N      1.852     0.028    21.434     6.862
   7   6 C      2.849     0.001    28.003     8.673
   8   1 H      0.860     0.177     1.229     1.736
   9   1 H      0.923     0.085     1.927     2.171

 Mol. C6AA /au·bohr⁶  :       1298.935268
 Mol. C8AA /au·bohr⁸  :      29681.436580
 Mol. α(0) /au        :         54.492882


Wiberg/Mayer (AO) data.
largest (>0.10) Wiberg bond orders for each atom
          total WBO             WBO to atom ...
     1  N   3.118        C    2 1.835    H    8 0.936
     2  C   3.944        N    1 1.835    C    7 1.075    N    3 0.911
     3  N   3.756        N    4 2.359    C    2 0.911    O    5 0.307
     4  N   2.899        N    3 2.359    O    5 0.263
     5  O   2.211        N    6 1.324    N    3 0.307    N    4 0.263    C    7 0.182
     6  N   3.202        C    7 1.607    O    5 1.324
     7  C   3.960        N    6 1.607    C    2 1.075    H    9 0.952    O    5 0.182
     8  H   0.969        N    1 0.936
     9  H   0.993        C    7 0.952

molecular dipole:
                 x           y           z       tot (Debye)
 q only:       -0.482       0.929       0.152
   full:       -0.731       0.971       0.014       3.089
molecular quadrupole (traceless):
                xx          xy          yy          xz          yz          zz
 q only:        3.384       2.984      -7.999       2.806      -0.699       4.615
  q+dip:        3.312       2.986     -10.636       3.351       0.112       7.324
   full:        3.149       2.748     -11.575       2.663       0.349       8.426


           -------------------------------------------------
          | TOTAL ENERGY              -20.845631052434 Eh   |
          | GRADIENT NORM               0.051936599443 Eh/α |
          | HOMO-LUMO GAP               0.657140694206 eV   |
           -------------------------------------------------

------------------------------------------------------------------------
 * finished run on 2021/06/02 at 10:00:07.688     
------------------------------------------------------------------------
 total:
 * wall-time:     0 d,  0 h,  0 min,  0.016 sec
 *  cpu-time:     0 d,  0 h,  0 min,  0.016 sec
 * ratio c/w:     0.987 speedup
 SCF:
 * wall-time:     0 d,  0 h,  0 min,  0.008 sec
 *  cpu-time:     0 d,  0 h,  0 min,  0.008 sec
 * ratio c/w:     1.000 speedup

