      -----------------------------------------------------------      
     |                   =====================                   |     
     |                           x T B                           |     
     |                   =====================                   |     
     |                         S. Grimme                         |     
     |          Mulliken Center for Theoretical Chemistry        |     
     |                    University of Bonn                     |     
     |                 Version 6.1.4 (SAW190525)                 |     
      -----------------------------------------------------------      

   This program is distributed in the hope that it will be useful,
   but WITHOUT ANY WARRANTY; without even the implied warranty of
   MERCHANTABILITY or FITNESS FOR A PARTICULAR PURPOSE.
   
   FOR NON-COMMERCIAL, ACADEMIA USE ONLY.
   
   Cite this work as:
   S. Grimme, C. Bannwarth, P. Shushkov, J. Comput. Theory Chem., 2017,
   13, 1989-2009. DOI: 10.1021/acs.jctc.7b00118
   C. Bannwarth, S. Ehlert and S. Grimme., J. Comput. Theory Chem., 2019,
   just accepted. DOI: 10.1021/acs.jctc.8b01176
   
   for sTDA-xTB:
   S. Grimme and C. Bannwarth, J. Chem. Phys., 2016, 145, 054103.
   DOI: 10.1063/1.4959605
   
   in the mass-spec context:
   V. Asgeirsson, C. Bauer and S. Grimme, Chem. Sci., 2017, 8, 4879.
   DOI: 10.1039/c7sc00601b
   
   for metadynamics refer to:
   S. Grimme, J. Chem. Theory Comput. Article ASAP, 2019,
   DOI: 10.1021/acs.jctc.9b00143
   
   with help from (in alphabetical order)
   C. Bannwarth, F. Bohle, G. Brandenburg, E. Caldeweyher, M. Checinski,
   S. Dohm, S. Ehlert, S. Ehrlich, F. März, H. Neugebauer, J. Pisarek,
   P. Pracht, P. Shushkov, and S. Spicher.
   
 * started run on 2021/06/02 at 10:00:07.186     

           -------------------------------------------------
          |                Calculation Setup                |
           -------------------------------------------------

          program call               : /groups/kemi/koerstz/opt/xtb/6.1/bin/xtb 23.xyz --gfn2 --acc 0.2 --chrg 0
          hostname                   : node305
          coordinate file            : 23.xyz
          omp threads                :                     1
          number of atoms            :                     9
          number of electrons        :                    36
          charge                     :                     0
          spin                       :                   0.0
          first test random number   :      0.27684737394193


########################################################################
# WARNING! Please study the warnings concerning your input carefully
#  - XTBPATH is not set, using XTBHOME instead
########################################################################

           ------------------------------------------------- 
          |                 G F N 2 - x T B                 |
          | Geometry, Frequencies, Noncovalent interactions |
          |            JCTC 2018 parametrisation            |
           ------------------------------------------------- 
             k(s)              :                1.8500
             k(p)              :                2.2300
             k(d)              :                2.2300
             k(f)              :                2.0000
             kEN (H0ij)        :               -2.0000
             D4 a1             :                0.5200
             D4 a2             :                5.0000
             D4 s6             :                1.0000
             D4 s8             :                2.7000
             D4 s9             :                5.0000
             alphaj            :                2.0000

  Z AO/shell   Hii/eV     exponent
  1     Wed Apr 25 08:07:45 CEST 2018   EN: 2.200 GM2: 0.406  GM3: 0.0800  RAES: 1.40
     1s    -10.707211    1.230000
  6     Wed Apr 25 08:07:45 CEST 2018   EN: 2.550 GM2: 0.538  GM3: 0.1500  RAES: 3.00
     2s    -13.970922    2.096432
     2p    -10.063292    1.800000
  7     Wed Apr 25 08:07:45 CEST 2018   EN: 3.040 GM2: 0.461  GM3:-0.0640  RAES: 1.90
     2s    -16.686243    2.339881
     2p    -12.523956    2.014332
  8     Wed Apr 25 08:07:45 CEST 2018   EN: 3.440 GM2: 0.452  GM3:-0.0517  RAES: 1.80
     2s    -20.229985    2.439742
     2p    -15.503117    2.137023


            Z     q(EN)     CN     RAES       Cart. coordinates
     1  N   5.0   -0.46    2.00    1.90    -1.12197     1.07029    -1.42164
     2  C   4.0    0.31    3.02    3.02    -0.44134    -0.90865    -0.31536
     3  N   5.0   -0.07    2.25    1.90    -1.53571    -3.38326    -0.68360
     4  N   5.0   -0.16    1.00    1.90    -3.14603    -4.69643    -0.12032
     5  O   6.0   -0.06    1.25    1.80     1.67379    -5.04058    -0.54902
     6  N   5.0   -0.17    2.02    1.90     2.82846    -3.52437     0.95730
     7  C   4.0    0.13    3.03    3.02     1.82682    -1.28504     1.21504
     8  H   1.0    0.33    1.00    1.43    -2.65263     0.99798    -2.58099
     9  H   1.0    0.17    0.99    1.43     2.52339     0.11786     2.59591

           ------------------------------------------------- 
          |        Self-Consistent Charge Iterations        |
           ------------------------------------------------- 
q/qsh data taken from xtbrestart
CAMM data taken from xtbrestart

          ...................................................
          :                      SETUP                      :
          :.................................................:
          :  # basis functions                  30          :
          :  # atomic orbitals                  30          :
          :  # shells                           16          :
          :  # electrons                        36          :
          :  max. iterations                   250          :
          :  Hamiltonian                  GFN2-xTB          :
          :  restarted?                       true          :
          :  GBSA solvation                  false          :
          :  PC potential                    false          :
          :  electronic temp.          300.0000000     K    :
          :  accuracy                    0.2000000          :
          :  -> integral cutoff          0.3198970E+02      :
          :  -> integral neglect         0.2000000E-08      :
          :  -> SCF convergence          0.2000000E-06 Eh   :
          :  -> wf. convergence          0.2000000E-04 e    :
          :  Broyden damping             0.4000000          :
          ...................................................

 iter      E             dE          RMSdq      gap      omega  full diag
   1    -21.0423713 -0.210424E+02  0.380E+00    1.05       0.0  T
   2    -21.0345559  0.781538E-02  0.251E+00    0.57       1.0  T
   3    -21.0354876 -0.931675E-03  0.200E+00    1.16       1.0  T
   4    -21.0620079 -0.265203E-01  0.407E-01    0.74       1.0  T
   5    -21.0626213 -0.613466E-03  0.196E-01    0.70       1.0  T
   6    -21.0626905 -0.691481E-04  0.788E-02    0.67       1.0  T
   7    -21.0627036 -0.131393E-04  0.289E-02    0.67       1.2  T
   8    -21.0627067 -0.305926E-05  0.128E-02    0.67       2.6  T
   9    -21.0627070 -0.338310E-06  0.535E-03    0.66       6.2  T
  10    -21.0627072 -0.155525E-06  0.143E-03    0.67      23.3  T
  11    -21.0627072 -0.662087E-08  0.593E-04    0.67      56.2  T
  12    -21.0627072 -0.116988E-08  0.117E-04    0.67     285.2  T
  13    -21.0627072  0.296332E-10  0.659E-05    0.67     505.5  T

   *** convergence criteria satisfied after 13 iterations ***

         #    Occupation            Energy/Eh            Energy/eV
      -------------------------------------------------------------
         1        2.0000           -0.7505037             -20.4222
       ...           ...                  ...                  ...
        12        2.0000           -0.5389272             -14.6650
        13        2.0000           -0.5269200             -14.3382
        14        2.0000           -0.5104450             -13.8899
        15        2.0000           -0.4927477             -13.4083
        16        2.0000           -0.4552145             -12.3870
        17        2.0000           -0.4310350             -11.7291
        18        2.0000           -0.3939747             -10.7206 (HOMO)
        19        0.0000           -0.3695198             -10.0551 (LUMO)
        20                         -0.3075717              -8.3695
        21                         -0.2998837              -8.1603
        22                         -0.2252657              -6.1298
        23                         -0.0167658              -0.4562
       ...                                ...                  ...
        30                          0.6948161              18.9069
      -------------------------------------------------------------
                  HL-Gap            0.0244549 Eh            0.6655 eV
             Fermi-level           -0.3817472 Eh          -10.3879 eV

 SCC (total)                   0 d,  0 h,  0 min,  0.008 sec
 SCC setup                      ...        0 min,  0.000 sec (  1.697%)
 Dispersion                     ...        0 min,  0.000 sec (  0.737%)
 integral evaluation            ...        0 min,  0.001 sec ( 14.946%)
 zeroth order Hamiltonian       ...        0 min,  0.000 sec (  0.408%)
 iterations                     ...        0 min,  0.004 sec ( 53.493%)
 molecular gradient             ...        0 min,  0.002 sec ( 26.169%)
 printout                       ...        0 min,  0.000 sec (  2.080%)

         :::::::::::::::::::::::::::::::::::::::::::::::::::::
         ::                     SUMMARY                     ::
         :::::::::::::::::::::::::::::::::::::::::::::::::::::
         :: total energy              -20.844747541228 Eh   ::
         :: gradient norm               0.048709124390 Eh/α ::
         :: HOMO-LUMO gap               0.665452495994 eV   ::
         ::.................................................::
         :: SCC energy                -21.062707183788 Eh   ::
         :: -> isotropic ES             0.032099424268 Eh   ::
         :: -> anisotropic ES           0.002337909957 Eh   ::
         :: -> anisotropic XC           0.032131158600 Eh   ::
         :: -> dispersion              -0.006099215099 Eh   ::
         :: repulsion energy            0.217955353000 Eh   ::
         :: add. restraining            0.000000000000 Eh   ::
         :::::::::::::::::::::::::::::::::::::::::::::::::::::

           -------------------------------------------------
          |                Property Printout                |
           -------------------------------------------------

    * Orbital Energies and Occupations

         #    Occupation            Energy/Eh            Energy/eV
      -------------------------------------------------------------
         1        2.0000           -0.7505037             -20.4222
       ...           ...                  ...                  ...
         6        2.0000           -0.6438660             -17.5205
         7        2.0000           -0.6277774             -17.0827
         8        2.0000           -0.6080661             -16.5463
         9        2.0000           -0.5835268             -15.8786
        10        2.0000           -0.5696457             -15.5008
        11        2.0000           -0.5511158             -14.9966
        12        2.0000           -0.5389272             -14.6650
        13        2.0000           -0.5269200             -14.3382
        14        2.0000           -0.5104450             -13.8899
        15        2.0000           -0.4927477             -13.4083
        16        2.0000           -0.4552145             -12.3870
        17        2.0000           -0.4310350             -11.7291
        18        2.0000           -0.3939747             -10.7206 (HOMO)
        19        0.0000           -0.3695198             -10.0551 (LUMO)
        20                         -0.3075717              -8.3695
        21                         -0.2998837              -8.1603
        22                         -0.2252657              -6.1298
        23                         -0.0167658              -0.4562
        24                          0.0334221               0.9095
        25                          0.0586439               1.5958
        26                          0.1773737               4.8266
        27                          0.3042803               8.2799
        28                          0.3651865               9.9372
        29                          0.5603091              15.2468
        30                          0.6948161              18.9069
      -------------------------------------------------------------
                  HL-Gap            0.0244549 Eh            0.6655 eV
             Fermi-level           -0.3817472 Eh          -10.3879 eV

   #   Z        covCN         q      C6AA      α(0)
   1   7 N      1.776    -0.269    27.815     7.810
   2   6 C      2.819     0.175    24.236     8.066
   3   7 N      2.119     0.201    18.356     6.357
   4   7 N      0.983    -0.090    22.630     6.843
   5   8 O      1.148    -0.308    19.782     5.971
   6   7 N      1.853     0.027    21.459     6.866
   7   6 C      2.850     0.002    27.984     8.670
   8   1 H      0.860     0.178     1.227     1.735
   9   1 H      0.922     0.085     1.930     2.173

 Mol. C6AA /au·bohr⁶  :       1298.803177
 Mol. C8AA /au·bohr⁸  :      29677.526375
 Mol. α(0) /au        :         54.489869


Wiberg/Mayer (AO) data.
largest (>0.10) Wiberg bond orders for each atom
          total WBO             WBO to atom ...
     1  N   3.119        C    2 1.844    H    8 0.935
     2  C   3.943        N    1 1.844    C    7 1.069    N    3 0.909
     3  N   3.756        N    4 2.360    C    2 0.909    O    5 0.308
     4  N   2.899        N    3 2.360    O    5 0.264
     5  O   2.206        N    6 1.319    N    3 0.308    N    4 0.264    C    7 0.182
     6  N   3.200        C    7 1.613    O    5 1.319
     7  C   3.960        N    6 1.613    C    2 1.069    H    9 0.951    O    5 0.182
     8  H   0.968        N    1 0.935
     9  H   0.993        C    7 0.951

molecular dipole:
                 x           y           z       tot (Debye)
 q only:       -0.497       0.937       0.159
   full:       -0.751       0.982       0.024       3.142
molecular quadrupole (traceless):
                xx          xy          yy          xz          yz          zz
 q only:        3.380       3.001      -7.997       2.857      -0.755       4.617
  q+dip:        3.310       3.007     -10.658       3.430       0.078       7.349
   full:        3.180       2.769     -11.597       2.767       0.339       8.417


           -------------------------------------------------
          | TOTAL ENERGY              -20.844747541228 Eh   |
          | GRADIENT NORM               0.048709124390 Eh/α |
          | HOMO-LUMO GAP               0.665452495994 eV   |
           -------------------------------------------------

------------------------------------------------------------------------
 * finished run on 2021/06/02 at 10:00:07.203     
------------------------------------------------------------------------
 total:
 * wall-time:     0 d,  0 h,  0 min,  0.017 sec
 *  cpu-time:     0 d,  0 h,  0 min,  0.016 sec
 * ratio c/w:     0.979 speedup
 SCF:
 * wall-time:     0 d,  0 h,  0 min,  0.008 sec
 *  cpu-time:     0 d,  0 h,  0 min,  0.008 sec
 * ratio c/w:     0.996 speedup

