      -----------------------------------------------------------      
     |                   =====================                   |     
     |                           x T B                           |     
     |                   =====================                   |     
     |                         S. Grimme                         |     
     |          Mulliken Center for Theoretical Chemistry        |     
     |                    University of Bonn                     |     
     |                 Version 6.1.4 (SAW190525)                 |     
      -----------------------------------------------------------      

   This program is distributed in the hope that it will be useful,
   but WITHOUT ANY WARRANTY; without even the implied warranty of
   MERCHANTABILITY or FITNESS FOR A PARTICULAR PURPOSE.
   
   FOR NON-COMMERCIAL, ACADEMIA USE ONLY.
   
   Cite this work as:
   S. Grimme, C. Bannwarth, P. Shushkov, J. Comput. Theory Chem., 2017,
   13, 1989-2009. DOI: 10.1021/acs.jctc.7b00118
   C. Bannwarth, S. Ehlert and S. Grimme., J. Comput. Theory Chem., 2019,
   just accepted. DOI: 10.1021/acs.jctc.8b01176
   
   for sTDA-xTB:
   S. Grimme and C. Bannwarth, J. Chem. Phys., 2016, 145, 054103.
   DOI: 10.1063/1.4959605
   
   in the mass-spec context:
   V. Asgeirsson, C. Bauer and S. Grimme, Chem. Sci., 2017, 8, 4879.
   DOI: 10.1039/c7sc00601b
   
   for metadynamics refer to:
   S. Grimme, J. Chem. Theory Comput. Article ASAP, 2019,
   DOI: 10.1021/acs.jctc.9b00143
   
   with help from (in alphabetical order)
   C. Bannwarth, F. Bohle, G. Brandenburg, E. Caldeweyher, M. Checinski,
   S. Dohm, S. Ehlert, S. Ehrlich, F. März, H. Neugebauer, J. Pisarek,
   P. Pracht, P. Shushkov, and S. Spicher.
   
 * started run on 2021/06/02 at 10:00:07.075     

           -------------------------------------------------
          |                Calculation Setup                |
           -------------------------------------------------

          program call               : /groups/kemi/koerstz/opt/xtb/6.1/bin/xtb 24.xyz --gfn2 --acc 0.2 --chrg 0
          hostname                   : node305
          coordinate file            : 24.xyz
          omp threads                :                     1
          number of atoms            :                     9
          number of electrons        :                    36
          charge                     :                     0
          spin                       :                   0.0
          first test random number   :      0.60947590265677


########################################################################
# WARNING! Please study the warnings concerning your input carefully
#  - XTBPATH is not set, using XTBHOME instead
########################################################################

           ------------------------------------------------- 
          |                 G F N 2 - x T B                 |
          | Geometry, Frequencies, Noncovalent interactions |
          |            JCTC 2018 parametrisation            |
           ------------------------------------------------- 
             k(s)              :                1.8500
             k(p)              :                2.2300
             k(d)              :                2.2300
             k(f)              :                2.0000
             kEN (H0ij)        :               -2.0000
             D4 a1             :                0.5200
             D4 a2             :                5.0000
             D4 s6             :                1.0000
             D4 s8             :                2.7000
             D4 s9             :                5.0000
             alphaj            :                2.0000

  Z AO/shell   Hii/eV     exponent
  1     Wed Apr 25 08:07:45 CEST 2018   EN: 2.200 GM2: 0.406  GM3: 0.0800  RAES: 1.40
     1s    -10.707211    1.230000
  6     Wed Apr 25 08:07:45 CEST 2018   EN: 2.550 GM2: 0.538  GM3: 0.1500  RAES: 3.00
     2s    -13.970922    2.096432
     2p    -10.063292    1.800000
  7     Wed Apr 25 08:07:45 CEST 2018   EN: 3.040 GM2: 0.461  GM3:-0.0640  RAES: 1.90
     2s    -16.686243    2.339881
     2p    -12.523956    2.014332
  8     Wed Apr 25 08:07:45 CEST 2018   EN: 3.440 GM2: 0.452  GM3:-0.0517  RAES: 1.80
     2s    -20.229985    2.439742
     2p    -15.503117    2.137023


            Z     q(EN)     CN     RAES       Cart. coordinates
     1  N   5.0   -0.46    2.00    1.90    -1.14838     1.07120    -1.41649
     2  C   4.0    0.30    3.02    3.02    -0.43244    -0.91294    -0.32909
     3  N   5.0   -0.06    2.33    1.90    -1.48089    -3.40812    -0.64448
     4  N   5.0   -0.17    1.00    1.90    -3.17187    -4.66039    -0.15071
     5  O   6.0   -0.05    1.32    1.80     1.64940    -5.04972    -0.55218
     6  N   5.0   -0.18    2.02    1.90     2.84233    -3.51501     0.93781
     7  C   4.0    0.13    3.03    3.02     1.84641    -1.27280     1.21019
     8  H   1.0    0.33    1.00    1.43    -2.66854     0.98505    -2.58746
     9  H   1.0    0.17    0.99    1.43     2.51877     0.11055     2.62972

           ------------------------------------------------- 
          |        Self-Consistent Charge Iterations        |
           ------------------------------------------------- 
q/qsh data taken from xtbrestart
CAMM data taken from xtbrestart

          ...................................................
          :                      SETUP                      :
          :.................................................:
          :  # basis functions                  30          :
          :  # atomic orbitals                  30          :
          :  # shells                           16          :
          :  # electrons                        36          :
          :  max. iterations                   250          :
          :  Hamiltonian                  GFN2-xTB          :
          :  restarted?                       true          :
          :  GBSA solvation                  false          :
          :  PC potential                    false          :
          :  electronic temp.          300.0000000     K    :
          :  accuracy                    0.2000000          :
          :  -> integral cutoff          0.3198970E+02      :
          :  -> integral neglect         0.2000000E-08      :
          :  -> SCF convergence          0.2000000E-06 Eh   :
          :  -> wf. convergence          0.2000000E-04 e    :
          :  Broyden damping             0.4000000          :
          ...................................................

 iter      E             dE          RMSdq      gap      omega  full diag
   1    -21.0013450 -0.210013E+02  0.557E+00    2.02       0.0  T
   2    -21.0111139 -0.976889E-02  0.360E+00    0.83       1.0  T
   3    -21.0260345 -0.149206E-01  0.252E+00    1.36       1.0  T
   4    -21.0565293 -0.304948E-01  0.586E-01    0.74       1.0  T
   5    -21.0583017 -0.177236E-02  0.184E-01    0.75       1.0  T
   6    -21.0583690 -0.672432E-04  0.105E-01    0.74       1.0  T
   7    -21.0584102 -0.412302E-04  0.356E-02    0.75       1.0  T
   8    -21.0584131 -0.290988E-05  0.123E-02    0.74       2.7  T
   9    -21.0584132 -0.111597E-06  0.611E-03    0.74       5.5  T
  10    -21.0584133 -0.119255E-06  0.180E-03    0.74      18.5  T
  11    -21.0584133 -0.430052E-09  0.915E-04    0.74      36.4  T
  12    -21.0584133 -0.409309E-08  0.218E-04    0.74     152.8  T
  13    -21.0584133 -0.204921E-10  0.685E-05    0.74     486.6  T
  14    -21.0584133 -0.165379E-10  0.240E-05    0.74    1387.2  T

   *** convergence criteria satisfied after 14 iterations ***

         #    Occupation            Energy/Eh            Energy/eV
      -------------------------------------------------------------
         1        2.0000           -0.7506339             -20.4258
       ...           ...                  ...                  ...
        12        2.0000           -0.5373828             -14.6229
        13        2.0000           -0.5270115             -14.3407
        14        2.0000           -0.5081836             -13.8284
        15        2.0000           -0.4925108             -13.4019
        16        2.0000           -0.4567840             -12.4297
        17        2.0000           -0.4341142             -11.8128
        18        2.0000           -0.3963784             -10.7860 (HOMO)
        19        0.0000           -0.3690452             -10.0422 (LUMO)
        20                         -0.3055433              -8.3143
        21                         -0.2999474              -8.1620
        22                         -0.2288682              -6.2278
        23                         -0.0121128              -0.3296
       ...                                ...                  ...
        30                          0.6856774              18.6582
      -------------------------------------------------------------
                  HL-Gap            0.0273332 Eh            0.7438 eV
             Fermi-level           -0.3827118 Eh          -10.4141 eV

 SCC (total)                   0 d,  0 h,  0 min,  0.008 sec
 SCC setup                      ...        0 min,  0.000 sec (  1.633%)
 Dispersion                     ...        0 min,  0.000 sec (  0.814%)
 integral evaluation            ...        0 min,  0.001 sec ( 13.828%)
 zeroth order Hamiltonian       ...        0 min,  0.000 sec (  0.393%)
 iterations                     ...        0 min,  0.004 sec ( 54.738%)
 molecular gradient             ...        0 min,  0.002 sec ( 25.814%)
 printout                       ...        0 min,  0.000 sec (  2.284%)

         :::::::::::::::::::::::::::::::::::::::::::::::::::::
         ::                     SUMMARY                     ::
         :::::::::::::::::::::::::::::::::::::::::::::::::::::
         :: total energy              -20.845562667391 Eh   ::
         :: gradient norm               0.057810092539 Eh/α ::
         :: HOMO-LUMO gap               0.743774181389 eV   ::
         ::.................................................::
         :: SCC energy                -21.058413332480 Eh   ::
         :: -> isotropic ES             0.031577728058 Eh   ::
         :: -> anisotropic ES           0.002525533405 Eh   ::
         :: -> anisotropic XC           0.032660735134 Eh   ::
         :: -> dispersion              -0.006088563006 Eh   ::
         :: repulsion energy            0.212846374680 Eh   ::
         :: add. restraining            0.000000000000 Eh   ::
         :::::::::::::::::::::::::::::::::::::::::::::::::::::

           -------------------------------------------------
          |                Property Printout                |
           -------------------------------------------------

    * Orbital Energies and Occupations

         #    Occupation            Energy/Eh            Energy/eV
      -------------------------------------------------------------
         1        2.0000           -0.7506339             -20.4258
       ...           ...                  ...                  ...
         6        2.0000           -0.6450752             -17.5534
         7        2.0000           -0.6285272             -17.1031
         8        2.0000           -0.6088189             -16.5668
         9        2.0000           -0.5843941             -15.9022
        10        2.0000           -0.5694138             -15.4945
        11        2.0000           -0.5520255             -15.0214
        12        2.0000           -0.5373828             -14.6229
        13        2.0000           -0.5270115             -14.3407
        14        2.0000           -0.5081836             -13.8284
        15        2.0000           -0.4925108             -13.4019
        16        2.0000           -0.4567840             -12.4297
        17        2.0000           -0.4341142             -11.8128
        18        2.0000           -0.3963784             -10.7860 (HOMO)
        19        0.0000           -0.3690452             -10.0422 (LUMO)
        20                         -0.3055433              -8.3143
        21                         -0.2999474              -8.1620
        22                         -0.2288682              -6.2278
        23                         -0.0121128              -0.3296
        24                          0.0287221               0.7816
        25                          0.0444578               1.2098
        26                          0.1681801               4.5764
        27                          0.2950777               8.0295
        28                          0.3562805               9.6949
        29                          0.5428002              14.7703
        30                          0.6856774              18.6582
      -------------------------------------------------------------
                  HL-Gap            0.0273332 Eh            0.7438 eV
             Fermi-level           -0.3827118 Eh          -10.4141 eV

   #   Z        covCN         q      C6AA      α(0)
   1   7 N      1.775    -0.267    27.764     7.803
   2   6 C      2.820     0.173    24.270     8.072
   3   7 N      2.198     0.208    18.154     6.323
   4   7 N      0.983    -0.102    22.877     6.880
   5   8 O      1.221    -0.302    19.609     5.948
   6   7 N      1.854     0.022    21.552     6.881
   7   6 C      2.850     0.005    27.914     8.659
   8   1 H      0.860     0.179     1.222     1.732
   9   1 H      0.922     0.086     1.918     2.166

 Mol. C6AA /au·bohr⁶  :       1297.265327
 Mol. C8AA /au·bohr⁸  :      29646.332606
 Mol. α(0) /au        :         54.463587


Wiberg/Mayer (AO) data.
largest (>0.10) Wiberg bond orders for each atom
          total WBO             WBO to atom ...
     1  N   3.115        C    2 1.848    H    8 0.935
     2  C   3.945        N    1 1.848    C    7 1.062    N    3 0.915
     3  N   3.766        N    4 2.343    C    2 0.915    O    5 0.337
     4  N   2.878        N    3 2.343    O    5 0.271
     5  O   2.210        N    6 1.296    N    3 0.337    N    4 0.271    C    7 0.179
     6  N   3.189        C    7 1.632    O    5 1.296
     7  C   3.961        N    6 1.632    C    2 1.062    H    9 0.952    O    5 0.179
     8  H   0.968        N    1 0.935
     9  H   0.993        C    7 0.952

molecular dipole:
                 x           y           z       tot (Debye)
 q only:       -0.440       0.953       0.160
   full:       -0.689       0.994       0.021       3.074
molecular quadrupole (traceless):
                xx          xy          yy          xz          yz          zz
 q only:        3.263       2.673      -8.020       2.829      -0.765       4.757
  q+dip:        3.020       2.676     -10.607       3.381       0.109       7.587
   full:        2.874       2.473     -11.556       2.700       0.326       8.683


           -------------------------------------------------
          | TOTAL ENERGY              -20.845562667391 Eh   |
          | GRADIENT NORM               0.057810092539 Eh/α |
          | HOMO-LUMO GAP               0.743774181389 eV   |
           -------------------------------------------------

------------------------------------------------------------------------
 * finished run on 2021/06/02 at 10:00:07.092     
------------------------------------------------------------------------
 total:
 * wall-time:     0 d,  0 h,  0 min,  0.016 sec
 *  cpu-time:     0 d,  0 h,  0 min,  0.015 sec
 * ratio c/w:     0.985 speedup
 SCF:
 * wall-time:     0 d,  0 h,  0 min,  0.008 sec
 *  cpu-time:     0 d,  0 h,  0 min,  0.008 sec
 * ratio c/w:     1.000 speedup

