      -----------------------------------------------------------      
     |                   =====================                   |     
     |                           x T B                           |     
     |                   =====================                   |     
     |                         S. Grimme                         |     
     |          Mulliken Center for Theoretical Chemistry        |     
     |                    University of Bonn                     |     
     |                 Version 6.1.4 (SAW190525)                 |     
      -----------------------------------------------------------      

   This program is distributed in the hope that it will be useful,
   but WITHOUT ANY WARRANTY; without even the implied warranty of
   MERCHANTABILITY or FITNESS FOR A PARTICULAR PURPOSE.
   
   FOR NON-COMMERCIAL, ACADEMIA USE ONLY.
   
   Cite this work as:
   S. Grimme, C. Bannwarth, P. Shushkov, J. Comput. Theory Chem., 2017,
   13, 1989-2009. DOI: 10.1021/acs.jctc.7b00118
   C. Bannwarth, S. Ehlert and S. Grimme., J. Comput. Theory Chem., 2019,
   just accepted. DOI: 10.1021/acs.jctc.8b01176
   
   for sTDA-xTB:
   S. Grimme and C. Bannwarth, J. Chem. Phys., 2016, 145, 054103.
   DOI: 10.1063/1.4959605
   
   in the mass-spec context:
   V. Asgeirsson, C. Bauer and S. Grimme, Chem. Sci., 2017, 8, 4879.
   DOI: 10.1039/c7sc00601b
   
   for metadynamics refer to:
   S. Grimme, J. Chem. Theory Comput. Article ASAP, 2019,
   DOI: 10.1021/acs.jctc.9b00143
   
   with help from (in alphabetical order)
   C. Bannwarth, F. Bohle, G. Brandenburg, E. Caldeweyher, M. Checinski,
   S. Dohm, S. Ehlert, S. Ehrlich, F. März, H. Neugebauer, J. Pisarek,
   P. Pracht, P. Shushkov, and S. Spicher.
   
 * started run on 2021/06/02 at 10:00:07.715     

           -------------------------------------------------
          |                Calculation Setup                |
           -------------------------------------------------

          program call               : /groups/kemi/koerstz/opt/xtb/6.1/bin/xtb 25.xyz --gfn2 --acc 0.2 --chrg 0
          hostname                   : node305
          coordinate file            : 25.xyz
          omp threads                :                     1
          number of atoms            :                     9
          number of electrons        :                    36
          charge                     :                     0
          spin                       :                   0.0
          first test random number   :      0.88823745423005


########################################################################
# WARNING! Please study the warnings concerning your input carefully
#  - XTBPATH is not set, using XTBHOME instead
########################################################################

           ------------------------------------------------- 
          |                 G F N 2 - x T B                 |
          | Geometry, Frequencies, Noncovalent interactions |
          |            JCTC 2018 parametrisation            |
           ------------------------------------------------- 
             k(s)              :                1.8500
             k(p)              :                2.2300
             k(d)              :                2.2300
             k(f)              :                2.0000
             kEN (H0ij)        :               -2.0000
             D4 a1             :                0.5200
             D4 a2             :                5.0000
             D4 s6             :                1.0000
             D4 s8             :                2.7000
             D4 s9             :                5.0000
             alphaj            :                2.0000

  Z AO/shell   Hii/eV     exponent
  1     Wed Apr 25 08:07:45 CEST 2018   EN: 2.200 GM2: 0.406  GM3: 0.0800  RAES: 1.40
     1s    -10.707211    1.230000
  6     Wed Apr 25 08:07:45 CEST 2018   EN: 2.550 GM2: 0.538  GM3: 0.1500  RAES: 3.00
     2s    -13.970922    2.096432
     2p    -10.063292    1.800000
  7     Wed Apr 25 08:07:45 CEST 2018   EN: 3.040 GM2: 0.461  GM3:-0.0640  RAES: 1.90
     2s    -16.686243    2.339881
     2p    -12.523956    2.014332
  8     Wed Apr 25 08:07:45 CEST 2018   EN: 3.440 GM2: 0.452  GM3:-0.0517  RAES: 1.80
     2s    -20.229985    2.439742
     2p    -15.503117    2.137023


            Z     q(EN)     CN     RAES       Cart. coordinates
     1  N   5.0   -0.46    2.00    1.90    -1.11145     1.04963    -1.47039
     2  C   4.0    0.30    3.02    3.02    -0.45221    -0.91191    -0.31600
     3  N   5.0   -0.06    2.34    1.90    -1.49912    -3.40979    -0.59019
     4  N   5.0   -0.17    1.00    1.90    -3.18401    -4.67182    -0.04049
     5  O   6.0   -0.06    1.33    1.80     1.66495    -4.97343    -0.67124
     6  N   5.0   -0.18    2.02    1.90     2.85186    -3.49954     0.88839
     7  C   4.0    0.13    3.03    3.02     1.84174    -1.27530     1.23192
     8  H   1.0    0.33    1.00    1.43    -2.63093     0.97163    -2.64301
     9  H   1.0    0.17    0.99    1.43     2.47396     0.06834     2.70833

           ------------------------------------------------- 
          |        Self-Consistent Charge Iterations        |
           ------------------------------------------------- 
q/qsh data taken from xtbrestart
CAMM data taken from xtbrestart

          ...................................................
          :                      SETUP                      :
          :.................................................:
          :  # basis functions                  30          :
          :  # atomic orbitals                  30          :
          :  # shells                           16          :
          :  # electrons                        36          :
          :  max. iterations                   250          :
          :  Hamiltonian                  GFN2-xTB          :
          :  restarted?                       true          :
          :  GBSA solvation                  false          :
          :  PC potential                    false          :
          :  electronic temp.          300.0000000     K    :
          :  accuracy                    0.2000000          :
          :  -> integral cutoff          0.3198970E+02      :
          :  -> integral neglect         0.2000000E-08      :
          :  -> SCF convergence          0.2000000E-06 Eh   :
          :  -> wf. convergence          0.2000000E-04 e    :
          :  Broyden damping             0.4000000          :
          ...................................................

 iter      E             dE          RMSdq      gap      omega  full diag
   1    -21.0156336 -0.210156E+02  0.444E+00    1.83       0.0  T
   2    -21.0250459 -0.941231E-02  0.288E+00    0.87       1.0  T
   3    -21.0306781 -0.563217E-02  0.197E+00    1.25       1.0  T
   4    -21.0494604 -0.187823E-01  0.582E-01    0.74       1.0  T
   5    -21.0513599 -0.189959E-02  0.165E-01    0.77       1.0  T
   6    -21.0514308 -0.708054E-04  0.968E-02    0.75       1.0  T
   7    -21.0514710 -0.402431E-04  0.325E-02    0.76       1.0  T
   8    -21.0514729 -0.191800E-05  0.103E-02    0.75       3.2  T
   9    -21.0514730 -0.494851E-07  0.420E-03    0.75       7.9  T
  10    -21.0514730 -0.494161E-07  0.146E-03    0.75      22.8  T
  11    -21.0514730 -0.965709E-09  0.735E-04    0.75      45.4  T
  12    -21.0514730 -0.250511E-08  0.180E-04    0.75     185.3  T
  13    -21.0514730 -0.416733E-10  0.515E-05    0.75     647.7  T

   *** convergence criteria satisfied after 13 iterations ***

         #    Occupation            Energy/Eh            Energy/eV
      -------------------------------------------------------------
         1        2.0000           -0.7499814             -20.4080
       ...           ...                  ...                  ...
        12        2.0000           -0.5369498             -14.6111
        13        2.0000           -0.5264488             -14.3254
        14        2.0000           -0.5083431             -13.8327
        15        2.0000           -0.4917795             -13.3820
        16        2.0000           -0.4571247             -12.4390
        17        2.0000           -0.4346494             -11.8274
        18        2.0000           -0.3968489             -10.7988 (HOMO)
        19        0.0000           -0.3691235             -10.0444 (LUMO)
        20                         -0.3083737              -8.3913
        21                         -0.3010857              -8.1930
        22                         -0.2315302              -6.3003
        23                         -0.0128218              -0.3489
       ...                                ...                  ...
        30                          0.6639073              18.0658
      -------------------------------------------------------------
                  HL-Gap            0.0277253 Eh            0.7544 eV
             Fermi-level           -0.3829862 Eh          -10.4216 eV

 SCC (total)                   0 d,  0 h,  0 min,  0.007 sec
 SCC setup                      ...        0 min,  0.000 sec (  1.657%)
 Dispersion                     ...        0 min,  0.000 sec (  0.827%)
 integral evaluation            ...        0 min,  0.001 sec ( 15.091%)
 zeroth order Hamiltonian       ...        0 min,  0.000 sec (  0.429%)
 iterations                     ...        0 min,  0.004 sec ( 52.329%)
 molecular gradient             ...        0 min,  0.002 sec ( 27.484%)
 printout                       ...        0 min,  0.000 sec (  1.750%)

         :::::::::::::::::::::::::::::::::::::::::::::::::::::
         ::                     SUMMARY                     ::
         :::::::::::::::::::::::::::::::::::::::::::::::::::::
         :: total energy              -20.842590641610 Eh   ::
         :: gradient norm               0.071859375688 Eh/α ::
         :: HOMO-LUMO gap               0.754444614692 eV   ::
         ::.................................................::
         :: SCC energy                -21.051473014126 Eh   ::
         :: -> isotropic ES             0.031527649736 Eh   ::
         :: -> anisotropic ES           0.002495489775 Eh   ::
         :: -> anisotropic XC           0.032857313630 Eh   ::
         :: -> dispersion              -0.006095363126 Eh   ::
         :: repulsion energy            0.208877959419 Eh   ::
         :: add. restraining            0.000000000000 Eh   ::
         :::::::::::::::::::::::::::::::::::::::::::::::::::::

           -------------------------------------------------
          |                Property Printout                |
           -------------------------------------------------

    * Orbital Energies and Occupations

         #    Occupation            Energy/Eh            Energy/eV
      -------------------------------------------------------------
         1        2.0000           -0.7499814             -20.4080
       ...           ...                  ...                  ...
         6        2.0000           -0.6438601             -17.5203
         7        2.0000           -0.6279123             -17.0864
         8        2.0000           -0.6077505             -16.5377
         9        2.0000           -0.5852430             -15.9253
        10        2.0000           -0.5694185             -15.4947
        11        2.0000           -0.5520346             -15.0216
        12        2.0000           -0.5369498             -14.6111
        13        2.0000           -0.5264488             -14.3254
        14        2.0000           -0.5083431             -13.8327
        15        2.0000           -0.4917795             -13.3820
        16        2.0000           -0.4571247             -12.4390
        17        2.0000           -0.4346494             -11.8274
        18        2.0000           -0.3968489             -10.7988 (HOMO)
        19        0.0000           -0.3691235             -10.0444 (LUMO)
        20                         -0.3083737              -8.3913
        21                         -0.3010857              -8.1930
        22                         -0.2315302              -6.3003
        23                         -0.0128218              -0.3489
        24                          0.0234422               0.6379
        25                          0.0418154               1.1379
        26                          0.1634623               4.4480
        27                          0.2907985               7.9130
        28                          0.3564768               9.7002
        29                          0.5376362              14.6298
        30                          0.6639073              18.0658
      -------------------------------------------------------------
                  HL-Gap            0.0277253 Eh            0.7544 eV
             Fermi-level           -0.3829862 Eh          -10.4216 eV

   #   Z        covCN         q      C6AA      α(0)
   1   7 N      1.775    -0.265    27.702     7.794
   2   6 C      2.821     0.175    24.235     8.066
   3   7 N      2.204     0.204    18.199     6.331
   4   7 N      0.983    -0.104    22.926     6.887
   5   8 O      1.227    -0.302    19.592     5.946
   6   7 N      1.855     0.021    21.574     6.884
   7   6 C      2.851     0.006    27.874     8.653
   8   1 H      0.860     0.179     1.217     1.728
   9   1 H      0.922     0.086     1.920     2.167

 Mol. C6AA /au·bohr⁶  :       1296.992327
 Mol. C8AA /au·bohr⁸  :      29639.196788
 Mol. α(0) /au        :         54.457439


Wiberg/Mayer (AO) data.
largest (>0.10) Wiberg bond orders for each atom
          total WBO             WBO to atom ...
     1  N   3.114        C    2 1.864    H    8 0.935
     2  C   3.944        N    1 1.864    C    7 1.045    N    3 0.918
     3  N   3.765        N    4 2.336    C    2 0.918    O    5 0.340
     4  N   2.873        N    3 2.336    O    5 0.273
     5  O   2.201        N    6 1.288    N    3 0.340    N    4 0.273    C    7 0.179
     6  N   3.188        C    7 1.644    O    5 1.288
     7  C   3.961        N    6 1.644    C    2 1.045    H    9 0.952    O    5 0.179
     8  H   0.968        N    1 0.935
     9  H   0.993        C    7 0.952

molecular dipole:
                 x           y           z       tot (Debye)
 q only:       -0.450       0.956       0.205
   full:       -0.712       0.999       0.082       3.126
molecular quadrupole (traceless):
                xx          xy          yy          xz          yz          zz
 q only:        3.127       2.560      -7.846       2.979      -1.014       4.719
  q+dip:        2.856       2.581     -10.421       3.619      -0.142       7.565
   full:        2.753       2.371     -11.354       2.994       0.109       8.601


           -------------------------------------------------
          | TOTAL ENERGY              -20.842590641610 Eh   |
          | GRADIENT NORM               0.071859375688 Eh/α |
          | HOMO-LUMO GAP               0.754444614692 eV   |
           -------------------------------------------------

------------------------------------------------------------------------
 * finished run on 2021/06/02 at 10:00:07.731     
------------------------------------------------------------------------
 total:
 * wall-time:     0 d,  0 h,  0 min,  0.015 sec
 *  cpu-time:     0 d,  0 h,  0 min,  0.015 sec
 * ratio c/w:     0.986 speedup
 SCF:
 * wall-time:     0 d,  0 h,  0 min,  0.008 sec
 *  cpu-time:     0 d,  0 h,  0 min,  0.008 sec
 * ratio c/w:     1.000 speedup

