      -----------------------------------------------------------      
     |                   =====================                   |     
     |                           x T B                           |     
     |                   =====================                   |     
     |                         S. Grimme                         |     
     |          Mulliken Center for Theoretical Chemistry        |     
     |                    University of Bonn                     |     
     |                 Version 6.1.4 (SAW190525)                 |     
      -----------------------------------------------------------      

   This program is distributed in the hope that it will be useful,
   but WITHOUT ANY WARRANTY; without even the implied warranty of
   MERCHANTABILITY or FITNESS FOR A PARTICULAR PURPOSE.
   
   FOR NON-COMMERCIAL, ACADEMIA USE ONLY.
   
   Cite this work as:
   S. Grimme, C. Bannwarth, P. Shushkov, J. Comput. Theory Chem., 2017,
   13, 1989-2009. DOI: 10.1021/acs.jctc.7b00118
   C. Bannwarth, S. Ehlert and S. Grimme., J. Comput. Theory Chem., 2019,
   just accepted. DOI: 10.1021/acs.jctc.8b01176
   
   for sTDA-xTB:
   S. Grimme and C. Bannwarth, J. Chem. Phys., 2016, 145, 054103.
   DOI: 10.1063/1.4959605
   
   in the mass-spec context:
   V. Asgeirsson, C. Bauer and S. Grimme, Chem. Sci., 2017, 8, 4879.
   DOI: 10.1039/c7sc00601b
   
   for metadynamics refer to:
   S. Grimme, J. Chem. Theory Comput. Article ASAP, 2019,
   DOI: 10.1021/acs.jctc.9b00143
   
   with help from (in alphabetical order)
   C. Bannwarth, F. Bohle, G. Brandenburg, E. Caldeweyher, M. Checinski,
   S. Dohm, S. Ehlert, S. Ehrlich, F. März, H. Neugebauer, J. Pisarek,
   P. Pracht, P. Shushkov, and S. Spicher.
   
 * started run on 2021/06/02 at 10:00:08.473     

           -------------------------------------------------
          |                Calculation Setup                |
           -------------------------------------------------

          program call               : /groups/kemi/koerstz/opt/xtb/6.1/bin/xtb 26.xyz --gfn2 --acc 0.2 --chrg 0
          hostname                   : node305
          coordinate file            : 26.xyz
          omp threads                :                     1
          number of atoms            :                     9
          number of electrons        :                    36
          charge                     :                     0
          spin                       :                   0.0
          first test random number   :      0.39033603490263


########################################################################
# WARNING! Please study the warnings concerning your input carefully
#  - XTBPATH is not set, using XTBHOME instead
########################################################################

           ------------------------------------------------- 
          |                 G F N 2 - x T B                 |
          | Geometry, Frequencies, Noncovalent interactions |
          |            JCTC 2018 parametrisation            |
           ------------------------------------------------- 
             k(s)              :                1.8500
             k(p)              :                2.2300
             k(d)              :                2.2300
             k(f)              :                2.0000
             kEN (H0ij)        :               -2.0000
             D4 a1             :                0.5200
             D4 a2             :                5.0000
             D4 s6             :                1.0000
             D4 s8             :                2.7000
             D4 s9             :                5.0000
             alphaj            :                2.0000

  Z AO/shell   Hii/eV     exponent
  1     Wed Apr 25 08:07:45 CEST 2018   EN: 2.200 GM2: 0.406  GM3: 0.0800  RAES: 1.40
     1s    -10.707211    1.230000
  6     Wed Apr 25 08:07:45 CEST 2018   EN: 2.550 GM2: 0.538  GM3: 0.1500  RAES: 3.00
     2s    -13.970922    2.096432
     2p    -10.063292    1.800000
  7     Wed Apr 25 08:07:45 CEST 2018   EN: 3.040 GM2: 0.461  GM3:-0.0640  RAES: 1.90
     2s    -16.686243    2.339881
     2p    -12.523956    2.014332
  8     Wed Apr 25 08:07:45 CEST 2018   EN: 3.440 GM2: 0.452  GM3:-0.0517  RAES: 1.80
     2s    -20.229985    2.439742
     2p    -15.503117    2.137023


            Z     q(EN)     CN     RAES       Cart. coordinates
     1  N   5.0   -0.46    2.00    1.90    -1.07268     1.03281    -1.51251
     2  C   4.0    0.31    3.02    3.02    -0.47375    -0.91392    -0.29773
     3  N   5.0   -0.06    2.31    1.90    -1.53712    -3.40290    -0.54911
     4  N   5.0   -0.17    1.00    1.90    -3.16629    -4.69715     0.06011
     5  O   6.0   -0.06    1.30    1.80     1.67977    -4.90132    -0.77723
     6  N   5.0   -0.18    2.03    1.90     2.83321    -3.49308     0.85271
     7  C   4.0    0.13    3.03    3.02     1.83498    -1.27547     1.25270
     8  H   1.0    0.33    1.00    1.43    -2.58267     0.96067    -2.69623
     9  H   1.0    0.17    0.99    1.43     2.43934     0.03817     2.76460

           ------------------------------------------------- 
          |        Self-Consistent Charge Iterations        |
           ------------------------------------------------- 
q/qsh data taken from xtbrestart
CAMM data taken from xtbrestart

          ...................................................
          :                      SETUP                      :
          :.................................................:
          :  # basis functions                  30          :
          :  # atomic orbitals                  30          :
          :  # shells                           16          :
          :  # electrons                        36          :
          :  max. iterations                   250          :
          :  Hamiltonian                  GFN2-xTB          :
          :  restarted?                       true          :
          :  GBSA solvation                  false          :
          :  PC potential                    false          :
          :  electronic temp.          300.0000000     K    :
          :  accuracy                    0.2000000          :
          :  -> integral cutoff          0.3198970E+02      :
          :  -> integral neglect         0.2000000E-08      :
          :  -> SCF convergence          0.2000000E-06 Eh   :
          :  -> wf. convergence          0.2000000E-04 e    :
          :  Broyden damping             0.4000000          :
          ...................................................

 iter      E             dE          RMSdq      gap      omega  full diag
   1    -21.0494524 -0.210495E+02  0.116E+00    0.76       0.0  T
   2    -21.0500465 -0.594143E-03  0.642E-01    0.75       1.0  T
   3    -21.0493218  0.724710E-03  0.420E-01    0.77       1.0  T
   4    -21.0505485 -0.122673E-02  0.824E-02    0.74       1.0  T
   5    -21.0505711 -0.226060E-04  0.555E-02    0.76       1.0  T
   6    -21.0505865 -0.153728E-04  0.172E-02    0.74       1.9  T
   7    -21.0505882 -0.173211E-05  0.519E-03    0.75       6.4  T
   8    -21.0505882 -0.148743E-07  0.259E-03    0.75      12.8  T
   9    -21.0505883 -0.184215E-07  0.810E-04    0.75      41.2  T
  10    -21.0505883 -0.340465E-08  0.299E-04    0.75     111.7  T
  11    -21.0505883 -0.808349E-10  0.846E-05    0.75     394.0  T
  12    -21.0505883 -0.252527E-10  0.255E-05    0.75    1308.2  T

   *** convergence criteria satisfied after 12 iterations ***

         #    Occupation            Energy/Eh            Energy/eV
      -------------------------------------------------------------
         1        2.0000           -0.7504055             -20.4196
       ...           ...                  ...                  ...
        12        2.0000           -0.5378235             -14.6349
        13        2.0000           -0.5251655             -14.2905
        14        2.0000           -0.5097292             -13.8704
        15        2.0000           -0.4917708             -13.3818
        16        2.0000           -0.4561734             -12.4131
        17        2.0000           -0.4335084             -11.7964
        18        2.0000           -0.3951167             -10.7517 (HOMO)
        19        0.0000           -0.3676682             -10.0048 (LUMO)
        20                         -0.3111018              -8.4655
        21                         -0.3000121              -8.1637
        22                         -0.2319510              -6.3117
        23                         -0.0132627              -0.3609
       ...                                ...                  ...
        30                          0.6728366              18.3088
      -------------------------------------------------------------
                  HL-Gap            0.0274485 Eh            0.7469 eV
             Fermi-level           -0.3813925 Eh          -10.3782 eV

 SCC (total)                   0 d,  0 h,  0 min,  0.007 sec
 SCC setup                      ...        0 min,  0.000 sec (  1.748%)
 Dispersion                     ...        0 min,  0.000 sec (  0.833%)
 integral evaluation            ...        0 min,  0.001 sec ( 15.136%)
 zeroth order Hamiltonian       ...        0 min,  0.000 sec (  0.430%)
 iterations                     ...        0 min,  0.004 sec ( 51.735%)
 molecular gradient             ...        0 min,  0.002 sec ( 27.335%)
 printout                       ...        0 min,  0.000 sec (  2.274%)

         :::::::::::::::::::::::::::::::::::::::::::::::::::::
         ::                     SUMMARY                     ::
         :::::::::::::::::::::::::::::::::::::::::::::::::::::
         :: total energy              -20.840037457348 Eh   ::
         :: gradient norm               0.063480946642 Eh/α ::
         :: HOMO-LUMO gap               0.746911950307 eV   ::
         ::.................................................::
         :: SCC energy                -21.050588266985 Eh   ::
         :: -> isotropic ES             0.031925214817 Eh   ::
         :: -> anisotropic ES           0.002472227114 Eh   ::
         :: -> anisotropic XC           0.032903351964 Eh   ::
         :: -> dispersion              -0.006109889174 Eh   ::
         :: repulsion energy            0.210546319073 Eh   ::
         :: add. restraining            0.000000000000 Eh   ::
         :::::::::::::::::::::::::::::::::::::::::::::::::::::

           -------------------------------------------------
          |                Property Printout                |
           -------------------------------------------------

    * Orbital Energies and Occupations

         #    Occupation            Energy/Eh            Energy/eV
      -------------------------------------------------------------
         1        2.0000           -0.7504055             -20.4196
       ...           ...                  ...                  ...
         6        2.0000           -0.6426965             -17.4887
         7        2.0000           -0.6282794             -17.0964
         8        2.0000           -0.6077352             -16.5373
         9        2.0000           -0.5855753             -15.9343
        10        2.0000           -0.5696909             -15.5021
        11        2.0000           -0.5512034             -14.9990
        12        2.0000           -0.5378235             -14.6349
        13        2.0000           -0.5251655             -14.2905
        14        2.0000           -0.5097292             -13.8704
        15        2.0000           -0.4917708             -13.3818
        16        2.0000           -0.4561734             -12.4131
        17        2.0000           -0.4335084             -11.7964
        18        2.0000           -0.3951167             -10.7517 (HOMO)
        19        0.0000           -0.3676682             -10.0048 (LUMO)
        20                         -0.3111018              -8.4655
        21                         -0.3000121              -8.1637
        22                         -0.2319510              -6.3117
        23                         -0.0132627              -0.3609
        24                          0.0223736               0.6088
        25                          0.0448524               1.2205
        26                          0.1635375               4.4501
        27                          0.2909475               7.9171
        28                          0.3618616               9.8468
        29                          0.5412209              14.7274
        30                          0.6728366              18.3088
      -------------------------------------------------------------
                  HL-Gap            0.0274485 Eh            0.7469 eV
             Fermi-level           -0.3813925 Eh          -10.3782 eV

   #   Z        covCN         q      C6AA      α(0)
   1   7 N      1.775    -0.265    27.705     7.795
   2   6 C      2.823     0.175    24.231     8.066
   3   7 N      2.176     0.204    18.232     6.336
   4   7 N      0.983    -0.100    22.841     6.875
   5   8 O      1.202    -0.305    19.680     5.958
   6   7 N      1.858     0.021    21.571     6.884
   7   6 C      2.849     0.006    27.885     8.655
   8   1 H      0.860     0.179     1.221     1.731
   9   1 H      0.922     0.086     1.923     2.169

 Mol. C6AA /au·bohr⁶  :       1297.594962
 Mol. C8AA /au·bohr⁸  :      29650.991282
 Mol. α(0) /au        :         54.467556


Wiberg/Mayer (AO) data.
largest (>0.10) Wiberg bond orders for each atom
          total WBO             WBO to atom ...
     1  N   3.111        C    2 1.871    H    8 0.935
     2  C   3.943        N    1 1.871    C    7 1.034    N    3 0.920
     3  N   3.766        N    4 2.345    C    2 0.920    O    5 0.327
     4  N   2.885        N    3 2.345    O    5 0.271
     5  O   2.190        N    6 1.292    N    3 0.327    N    4 0.271    C    7 0.180
     6  N   3.191        C    7 1.644    O    5 1.292
     7  C   3.959        N    6 1.644    C    2 1.034    H    9 0.952    O    5 0.180
     8  H   0.968        N    1 0.935
     9  H   0.993        C    7 0.952

molecular dipole:
                 x           y           z       tot (Debye)
 q only:       -0.492       0.932       0.247
   full:       -0.767       0.982       0.136       3.186
molecular quadrupole (traceless):
                xx          xy          yy          xz          yz          zz
 q only:        3.050       2.712      -7.636       3.105      -1.224       4.587
  q+dip:        2.813       2.765     -10.237       3.827      -0.341       7.425
   full:        2.781       2.516     -11.173       3.255      -0.062       8.392


           -------------------------------------------------
          | TOTAL ENERGY              -20.840037457348 Eh   |
          | GRADIENT NORM               0.063480946642 Eh/α |
          | HOMO-LUMO GAP               0.746911950307 eV   |
           -------------------------------------------------

------------------------------------------------------------------------
 * finished run on 2021/06/02 at 10:00:08.488     
------------------------------------------------------------------------
 total:
 * wall-time:     0 d,  0 h,  0 min,  0.015 sec
 *  cpu-time:     0 d,  0 h,  0 min,  0.015 sec
 * ratio c/w:     0.986 speedup
 SCF:
 * wall-time:     0 d,  0 h,  0 min,  0.007 sec
 *  cpu-time:     0 d,  0 h,  0 min,  0.007 sec
 * ratio c/w:     1.000 speedup

