      -----------------------------------------------------------      
     |                   =====================                   |     
     |                           x T B                           |     
     |                   =====================                   |     
     |                         S. Grimme                         |     
     |          Mulliken Center for Theoretical Chemistry        |     
     |                    University of Bonn                     |     
     |                 Version 6.1.4 (SAW190525)                 |     
      -----------------------------------------------------------      

   This program is distributed in the hope that it will be useful,
   but WITHOUT ANY WARRANTY; without even the implied warranty of
   MERCHANTABILITY or FITNESS FOR A PARTICULAR PURPOSE.
   
   FOR NON-COMMERCIAL, ACADEMIA USE ONLY.
   
   Cite this work as:
   S. Grimme, C. Bannwarth, P. Shushkov, J. Comput. Theory Chem., 2017,
   13, 1989-2009. DOI: 10.1021/acs.jctc.7b00118
   C. Bannwarth, S. Ehlert and S. Grimme., J. Comput. Theory Chem., 2019,
   just accepted. DOI: 10.1021/acs.jctc.8b01176
   
   for sTDA-xTB:
   S. Grimme and C. Bannwarth, J. Chem. Phys., 2016, 145, 054103.
   DOI: 10.1063/1.4959605
   
   in the mass-spec context:
   V. Asgeirsson, C. Bauer and S. Grimme, Chem. Sci., 2017, 8, 4879.
   DOI: 10.1039/c7sc00601b
   
   for metadynamics refer to:
   S. Grimme, J. Chem. Theory Comput. Article ASAP, 2019,
   DOI: 10.1021/acs.jctc.9b00143
   
   with help from (in alphabetical order)
   C. Bannwarth, F. Bohle, G. Brandenburg, E. Caldeweyher, M. Checinski,
   S. Dohm, S. Ehlert, S. Ehrlich, F. März, H. Neugebauer, J. Pisarek,
   P. Pracht, P. Shushkov, and S. Spicher.
   
 * started run on 2021/06/02 at 10:00:07.384     

           -------------------------------------------------
          |                Calculation Setup                |
           -------------------------------------------------

          program call               : /groups/kemi/koerstz/opt/xtb/6.1/bin/xtb 28.xyz --gfn2 --acc 0.2 --chrg 0
          hostname                   : node305
          coordinate file            : 28.xyz
          omp threads                :                     1
          number of atoms            :                     9
          number of electrons        :                    36
          charge                     :                     0
          spin                       :                   0.0
          first test random number   :      0.25748842204293


########################################################################
# WARNING! Please study the warnings concerning your input carefully
#  - XTBPATH is not set, using XTBHOME instead
########################################################################

           ------------------------------------------------- 
          |                 G F N 2 - x T B                 |
          | Geometry, Frequencies, Noncovalent interactions |
          |            JCTC 2018 parametrisation            |
           ------------------------------------------------- 
             k(s)              :                1.8500
             k(p)              :                2.2300
             k(d)              :                2.2300
             k(f)              :                2.0000
             kEN (H0ij)        :               -2.0000
             D4 a1             :                0.5200
             D4 a2             :                5.0000
             D4 s6             :                1.0000
             D4 s8             :                2.7000
             D4 s9             :                5.0000
             alphaj            :                2.0000

  Z AO/shell   Hii/eV     exponent
  1     Wed Apr 25 08:07:45 CEST 2018   EN: 2.200 GM2: 0.406  GM3: 0.0800  RAES: 1.40
     1s    -10.707211    1.230000
  6     Wed Apr 25 08:07:45 CEST 2018   EN: 2.550 GM2: 0.538  GM3: 0.1500  RAES: 3.00
     2s    -13.970922    2.096432
     2p    -10.063292    1.800000
  7     Wed Apr 25 08:07:45 CEST 2018   EN: 3.040 GM2: 0.461  GM3:-0.0640  RAES: 1.90
     2s    -16.686243    2.339881
     2p    -12.523956    2.014332
  8     Wed Apr 25 08:07:45 CEST 2018   EN: 3.440 GM2: 0.452  GM3:-0.0517  RAES: 1.80
     2s    -20.229985    2.439742
     2p    -15.503117    2.137023


            Z     q(EN)     CN     RAES       Cart. coordinates
     1  N   5.0   -0.45    2.00    1.90    -0.91281     0.80972    -1.77009
     2  C   4.0    0.32    3.01    3.02    -0.75782    -0.97824    -0.21642
     3  N   5.0   -0.12    2.02    1.90    -2.37124    -3.04562    -0.07177
     4  N   5.0   -0.15    1.00    1.90    -3.74018    -4.17515     1.13985
     5  O   6.0   -0.09    1.00    1.80     3.31272    -4.52654    -1.50652
     6  N   5.0   -0.16    2.01    1.90     3.21839    -3.12624     0.34307
     7  C   4.0    0.14    3.02    3.02     1.57256    -1.66212     1.24263
     8  H   1.0    0.33    1.00    1.43    -2.28044     0.82572    -3.11144
     9  H   1.0    0.17    1.00    1.43     1.91362    -0.77371     3.04801

           ------------------------------------------------- 
          |        Self-Consistent Charge Iterations        |
           ------------------------------------------------- 
q/qsh data taken from xtbrestart
CAMM data taken from xtbrestart

          ...................................................
          :                      SETUP                      :
          :.................................................:
          :  # basis functions                  30          :
          :  # atomic orbitals                  30          :
          :  # shells                           16          :
          :  # electrons                        36          :
          :  max. iterations                   250          :
          :  Hamiltonian                  GFN2-xTB          :
          :  restarted?                       true          :
          :  GBSA solvation                  false          :
          :  PC potential                    false          :
          :  electronic temp.          300.0000000     K    :
          :  accuracy                    0.2000000          :
          :  -> integral cutoff          0.3198970E+02      :
          :  -> integral neglect         0.2000000E-08      :
          :  -> SCF convergence          0.2000000E-06 Eh   :
          :  -> wf. convergence          0.2000000E-04 e    :
          :  Broyden damping             0.4000000          :
          ...................................................

 iter      E             dE          RMSdq      gap      omega  full diag
   1    -21.0391229 -0.210391E+02  0.516E+00    0.75       0.0  T
   2    -20.7142445  0.324878E+00  0.566E+00    0.83       1.0  T
   3    -20.9217249 -0.207480E+00  0.436E+00    1.60       1.0  T
   4    -21.0145347 -0.928097E-01  0.255E+00    0.88       1.0  T
   5    -21.0602784 -0.457437E-01  0.138E+00    0.65       1.0  T
   6    -21.0731212 -0.128428E-01  0.862E-01    0.58       1.0  T
   7    -21.0706657  0.245549E-02  0.851E-01    0.57       1.0  T
   8    -21.0777701 -0.710435E-02  0.310E-01    0.48       1.0  T
   9    -21.0784244 -0.654283E-03  0.194E-01    0.48       1.0  T
  10    -21.0787984 -0.374017E-03  0.944E-02    0.50       1.0  T
  11    -21.0789059 -0.107517E-03  0.142E-02    0.49       2.4  T
  12    -21.0789078 -0.186841E-05  0.407E-03    0.49       8.2  T
  13    -21.0789078  0.555390E-08  0.213E-03    0.49      15.6  T
  14    -21.0789077  0.108403E-06  0.337E-03    0.49       9.9  T
  15    -21.0789078 -0.144872E-06  0.431E-04    0.49      77.4  T
  16    -21.0789078 -0.142962E-08  0.219E-04    0.49     151.9  T
  17    -21.0789078 -0.594842E-09  0.223E-05    0.49    1494.7  T
  18    -21.0789078  0.458655E-11  0.226E-05    0.49    1476.9  T

   *** convergence criteria satisfied after 18 iterations ***

         #    Occupation            Energy/Eh            Energy/eV
      -------------------------------------------------------------
         1        2.0000           -0.7477597             -20.3476
       ...           ...                  ...                  ...
        12        2.0000           -0.5471631             -14.8891
        13        2.0000           -0.5257692             -14.3069
        14        2.0000           -0.5121680             -13.9368
        15        2.0000           -0.4915336             -13.3753
        16        2.0000           -0.4374355             -11.9032
        17        2.0000           -0.4273554             -11.6289
        18        1.9998           -0.3783249             -10.2947 (HOMO)
        19        0.0002           -0.3602855              -9.8039 (LUMO)
        20                         -0.3351273              -9.1193
        21                         -0.2582718              -7.0279
        22                         -0.2531422              -6.8884
        23                          0.0295386               0.8038
       ...                                ...                  ...
        30                          0.7241400              19.7049
      -------------------------------------------------------------
                  HL-Gap            0.0180395 Eh            0.4909 eV
             Fermi-level           -0.3693052 Eh          -10.0493 eV

 SCC (total)                   0 d,  0 h,  0 min,  0.009 sec
 SCC setup                      ...        0 min,  0.000 sec (  1.420%)
 Dispersion                     ...        0 min,  0.000 sec (  0.737%)
 integral evaluation            ...        0 min,  0.001 sec ( 12.991%)
 zeroth order Hamiltonian       ...        0 min,  0.000 sec (  0.380%)
 iterations                     ...        0 min,  0.005 sec ( 59.197%)
 molecular gradient             ...        0 min,  0.002 sec ( 23.022%)
 printout                       ...        0 min,  0.000 sec (  1.857%)

         :::::::::::::::::::::::::::::::::::::::::::::::::::::
         ::                     SUMMARY                     ::
         :::::::::::::::::::::::::::::::::::::::::::::::::::::
         :: total energy              -20.837125401953 Eh   ::
         :: gradient norm               0.034146167388 Eh/α ::
         :: HOMO-LUMO gap               0.490879186293 eV   ::
         ::.................................................::
         :: SCC energy                -21.078907813216 Eh   ::
         :: -> isotropic ES             0.030699544765 Eh   ::
         :: -> anisotropic ES           0.003366436676 Eh   ::
         :: -> anisotropic XC           0.026249972663 Eh   ::
         :: -> dispersion              -0.005889834085 Eh   ::
         :: repulsion energy            0.241775276187 Eh   ::
         :: add. restraining            0.000000000000 Eh   ::
         :::::::::::::::::::::::::::::::::::::::::::::::::::::

           -------------------------------------------------
          |                Property Printout                |
           -------------------------------------------------

    * Orbital Energies and Occupations

         #    Occupation            Energy/Eh            Energy/eV
      -------------------------------------------------------------
         1        2.0000           -0.7477597             -20.3476
       ...           ...                  ...                  ...
         6        2.0000           -0.6374665             -17.3463
         7        2.0000           -0.6119330             -16.6515
         8        2.0000           -0.5978911             -16.2694
         9        2.0000           -0.5896037             -16.0439
        10        2.0000           -0.5774675             -15.7137
        11        2.0000           -0.5762192             -15.6797
        12        2.0000           -0.5471631             -14.8891
        13        2.0000           -0.5257692             -14.3069
        14        2.0000           -0.5121680             -13.9368
        15        2.0000           -0.4915336             -13.3753
        16        2.0000           -0.4374355             -11.9032
        17        2.0000           -0.4273554             -11.6289
        18        1.9998           -0.3783249             -10.2947 (HOMO)
        19        0.0002           -0.3602855              -9.8039 (LUMO)
        20                         -0.3351273              -9.1193
        21                         -0.2582718              -7.0279
        22                         -0.2531422              -6.8884
        23                          0.0295386               0.8038
        24                          0.0527706               1.4360
        25                          0.0968564               2.6356
        26                          0.2016400               5.4869
        27                          0.3093414               8.4176
        28                          0.5562977              15.1376
        29                          0.5957416              16.2110
        30                          0.7241400              19.7049
      -------------------------------------------------------------
                  HL-Gap            0.0180395 Eh            0.4909 eV
             Fermi-level           -0.3693052 Eh          -10.0493 eV

   #   Z        covCN         q      C6AA      α(0)
   1   7 N      1.778    -0.283    28.147     7.857
   2   6 C      2.806     0.162    24.492     8.108
   3   7 N      1.914     0.122    19.768     6.592
   4   7 N      0.985    -0.081    22.453     6.815
   5   8 O      0.927    -0.314    20.002     5.998
   6   7 N      1.838     0.152    19.274     6.506
   7   6 C      2.839    -0.025    28.623     8.768
   8   1 H      0.860     0.179     1.222     1.731
   9   1 H      0.926     0.087     1.907     2.159

 Mol. C6AA /au·bohr⁶  :       1301.173665
 Mol. C8AA /au·bohr⁸  :      29753.605952
 Mol. α(0) /au        :         54.534353


Wiberg/Mayer (AO) data.
largest (>0.10) Wiberg bond orders for each atom
          total WBO             WBO to atom ...
     1  N   3.155        C    2 1.770    H    8 0.927    N    6 0.131    O    5 0.103    N    4 0.102
     2  C   3.930        N    1 1.770    N    3 1.037    C    7 0.884    N    4 0.121
     3  N   3.660        N    4 2.319    C    2 1.037
     4  N   2.959        N    3 2.319    N    6 0.168    O    5 0.166    C    2 0.121    N    1 0.102
     5  O   2.154        N    6 1.441    C    7 0.296    N    4 0.166    N    1 0.103
     6  N   3.570        C    7 1.688    O    5 1.441    N    4 0.168    N    1 0.131
     7  C   3.941        N    6 1.688    H    9 0.941    C    2 0.884    O    5 0.296
     8  H   0.968        N    1 0.927
     9  H   0.992        C    7 0.941

molecular dipole:
                 x           y           z       tot (Debye)
 q only:       -0.681       0.644       0.567
   full:       -0.896       0.656       0.500       3.094
molecular quadrupole (traceless):
                xx          xy          yy          xz          yz          zz
 q only:        0.893       4.078      -4.921       5.096      -3.095       4.028
  q+dip:        0.698       3.615      -6.864       7.195      -2.664       6.165
   full:        0.730       3.034      -6.806       7.236      -2.337       6.076


           -------------------------------------------------
          | TOTAL ENERGY              -20.837125401953 Eh   |
          | GRADIENT NORM               0.034146167388 Eh/α |
          | HOMO-LUMO GAP               0.490879186293 eV   |
           -------------------------------------------------

------------------------------------------------------------------------
 * finished run on 2021/06/02 at 10:00:07.401     
------------------------------------------------------------------------
 total:
 * wall-time:     0 d,  0 h,  0 min,  0.016 sec
 *  cpu-time:     0 d,  0 h,  0 min,  0.016 sec
 * ratio c/w:     0.987 speedup
 SCF:
 * wall-time:     0 d,  0 h,  0 min,  0.009 sec
 *  cpu-time:     0 d,  0 h,  0 min,  0.009 sec
 * ratio c/w:     0.999 speedup

