      -----------------------------------------------------------      
     |                   =====================                   |     
     |                           x T B                           |     
     |                   =====================                   |     
     |                         S. Grimme                         |     
     |          Mulliken Center for Theoretical Chemistry        |     
     |                    University of Bonn                     |     
     |                 Version 6.1.4 (SAW190525)                 |     
      -----------------------------------------------------------      

   This program is distributed in the hope that it will be useful,
   but WITHOUT ANY WARRANTY; without even the implied warranty of
   MERCHANTABILITY or FITNESS FOR A PARTICULAR PURPOSE.
   
   FOR NON-COMMERCIAL, ACADEMIA USE ONLY.
   
   Cite this work as:
   S. Grimme, C. Bannwarth, P. Shushkov, J. Comput. Theory Chem., 2017,
   13, 1989-2009. DOI: 10.1021/acs.jctc.7b00118
   C. Bannwarth, S. Ehlert and S. Grimme., J. Comput. Theory Chem., 2019,
   just accepted. DOI: 10.1021/acs.jctc.8b01176
   
   for sTDA-xTB:
   S. Grimme and C. Bannwarth, J. Chem. Phys., 2016, 145, 054103.
   DOI: 10.1063/1.4959605
   
   in the mass-spec context:
   V. Asgeirsson, C. Bauer and S. Grimme, Chem. Sci., 2017, 8, 4879.
   DOI: 10.1039/c7sc00601b
   
   for metadynamics refer to:
   S. Grimme, J. Chem. Theory Comput. Article ASAP, 2019,
   DOI: 10.1021/acs.jctc.9b00143
   
   with help from (in alphabetical order)
   C. Bannwarth, F. Bohle, G. Brandenburg, E. Caldeweyher, M. Checinski,
   S. Dohm, S. Ehlert, S. Ehrlich, F. März, H. Neugebauer, J. Pisarek,
   P. Pracht, P. Shushkov, and S. Spicher.
   
 * started run on 2021/06/02 at 10:00:07.693     

           -------------------------------------------------
          |                Calculation Setup                |
           -------------------------------------------------

          program call               : /groups/kemi/koerstz/opt/xtb/6.1/bin/xtb 30.xyz --gfn2 --acc 0.2 --chrg 0
          hostname                   : node305
          coordinate file            : 30.xyz
          omp threads                :                     1
          number of atoms            :                     9
          number of electrons        :                    36
          charge                     :                     0
          spin                       :                   0.0
          first test random number   :      0.47296296814543


########################################################################
# WARNING! Please study the warnings concerning your input carefully
#  - XTBPATH is not set, using XTBHOME instead
########################################################################

           ------------------------------------------------- 
          |                 G F N 2 - x T B                 |
          | Geometry, Frequencies, Noncovalent interactions |
          |            JCTC 2018 parametrisation            |
           ------------------------------------------------- 
             k(s)              :                1.8500
             k(p)              :                2.2300
             k(d)              :                2.2300
             k(f)              :                2.0000
             kEN (H0ij)        :               -2.0000
             D4 a1             :                0.5200
             D4 a2             :                5.0000
             D4 s6             :                1.0000
             D4 s8             :                2.7000
             D4 s9             :                5.0000
             alphaj            :                2.0000

  Z AO/shell   Hii/eV     exponent
  1     Wed Apr 25 08:07:45 CEST 2018   EN: 2.200 GM2: 0.406  GM3: 0.0800  RAES: 1.40
     1s    -10.707211    1.230000
  6     Wed Apr 25 08:07:45 CEST 2018   EN: 2.550 GM2: 0.538  GM3: 0.1500  RAES: 3.00
     2s    -13.970922    2.096432
     2p    -10.063292    1.800000
  7     Wed Apr 25 08:07:45 CEST 2018   EN: 3.040 GM2: 0.461  GM3:-0.0640  RAES: 1.90
     2s    -16.686243    2.339881
     2p    -12.523956    2.014332
  8     Wed Apr 25 08:07:45 CEST 2018   EN: 3.440 GM2: 0.452  GM3:-0.0517  RAES: 1.80
     2s    -20.229985    2.439742
     2p    -15.503117    2.137023


            Z     q(EN)     CN     RAES       Cart. coordinates
     1  N   5.0   -0.45    2.01    1.90    -0.80757     0.62077    -1.88561
     2  C   4.0    0.33    3.01    3.02    -0.77428    -1.12519    -0.29014
     3  N   5.0   -0.13    2.02    1.90    -2.58722    -2.92082     0.09959
     4  N   5.0   -0.15    1.00    1.90    -4.02770    -3.84668     1.41880
     5  O   6.0   -0.09    1.00    1.80     3.75774    -4.14087    -1.69838
     6  N   5.0   -0.16    2.01    1.90     3.32645    -3.03191     0.26588
     7  C   4.0    0.15    3.01    3.02     1.54386    -1.79714     1.22799
     8  H   1.0    0.33    1.00    1.43    -2.21320     0.69624    -3.17891
     9  H   1.0    0.17    1.00    1.43     1.73671    -1.10660     3.13809

           ------------------------------------------------- 
          |        Self-Consistent Charge Iterations        |
           ------------------------------------------------- 
q/qsh data taken from xtbrestart
CAMM data taken from xtbrestart

          ...................................................
          :                      SETUP                      :
          :.................................................:
          :  # basis functions                  30          :
          :  # atomic orbitals                  30          :
          :  # shells                           16          :
          :  # electrons                        36          :
          :  max. iterations                   250          :
          :  Hamiltonian                  GFN2-xTB          :
          :  restarted?                       true          :
          :  GBSA solvation                  false          :
          :  PC potential                    false          :
          :  electronic temp.          300.0000000     K    :
          :  accuracy                    0.2000000          :
          :  -> integral cutoff          0.3198970E+02      :
          :  -> integral neglect         0.2000000E-08      :
          :  -> SCF convergence          0.2000000E-06 Eh   :
          :  -> wf. convergence          0.2000000E-04 e    :
          :  Broyden damping             0.4000000          :
          ...................................................

 iter      E             dE          RMSdq      gap      omega  full diag
   1    -20.7260029 -0.207260E+02  0.658E+00    0.76       0.0  T
   2    -20.6909342  0.350687E-01  0.692E+00    2.19       1.0  T
   3    -20.9695957 -0.278661E+00  0.356E+00    1.26       1.0  T
   4    -20.8805556  0.890401E-01  0.400E+00    0.58       1.0  T
   5    -21.0498097 -0.169254E+00  0.185E+00    0.68       1.0  T
   6    -21.0842442 -0.344345E-01  0.459E-01    0.47       1.0  T
   7    -21.0790671  0.517716E-02  0.739E-01    0.51       1.0  T
   8    -21.0835616 -0.449454E-02  0.383E-01    0.43       1.0  T
   9    -21.0850481 -0.148646E-02  0.172E-01    0.44       1.0  T
  10    -21.0853822 -0.334164E-03  0.585E-02    0.44       1.0  T
  11    -21.0854201 -0.378472E-04  0.645E-03    0.44       5.2  T
  12    -21.0854203 -0.184269E-06  0.326E-03    0.44      10.2  T
  13    -21.0854198  0.423270E-06  0.622E-03    0.44       5.4  T
  14    -21.0854202 -0.366639E-06  0.322E-03    0.44      10.4  T
  15    -21.0854203 -0.129549E-06  0.683E-04    0.44      48.8  T
  16    -21.0854203 -0.185917E-08  0.577E-04    0.44      57.8  T
  17    -21.0854204 -0.439168E-08  0.293E-05    0.44    1137.8  T
  18    -21.0854204 -0.885336E-11  0.427E-06    0.44    7802.1  T

   *** convergence criteria satisfied after 18 iterations ***

         #    Occupation            Energy/Eh            Energy/eV
      -------------------------------------------------------------
         1        2.0000           -0.7445777             -20.2610
       ...           ...                  ...                  ...
        12        2.0000           -0.5464014             -14.8683
        13        2.0000           -0.5246095             -14.2754
        14        2.0000           -0.5123392             -13.9415
        15        2.0000           -0.4919542             -13.3868
        16        2.0000           -0.4359587             -11.8630
        17        2.0000           -0.4290855             -11.6760
        18        1.9996           -0.3752568             -10.2113 (HOMO)
        19        0.0004           -0.3589599              -9.7678 (LUMO)
        20                         -0.3324384              -9.0461
        21                         -0.2591710              -7.0524
        22                         -0.2410113              -6.5583
        23                          0.0280082               0.7621
       ...                                ...                  ...
        30                          0.7335406              19.9607
      -------------------------------------------------------------
                  HL-Gap            0.0162969 Eh            0.4435 eV
             Fermi-level           -0.3671083 Eh           -9.9895 eV

 SCC (total)                   0 d,  0 h,  0 min,  0.009 sec
 SCC setup                      ...        0 min,  0.000 sec (  1.480%)
 Dispersion                     ...        0 min,  0.000 sec (  0.660%)
 integral evaluation            ...        0 min,  0.001 sec ( 12.600%)
 zeroth order Hamiltonian       ...        0 min,  0.000 sec (  0.364%)
 iterations                     ...        0 min,  0.005 sec ( 59.820%)
 molecular gradient             ...        0 min,  0.002 sec ( 22.672%)
 printout                       ...        0 min,  0.000 sec (  1.958%)

         :::::::::::::::::::::::::::::::::::::::::::::::::::::
         ::                     SUMMARY                     ::
         :::::::::::::::::::::::::::::::::::::::::::::::::::::
         :: total energy              -20.839456058173 Eh   ::
         :: gradient norm               0.015839929063 Eh/α ::
         :: HOMO-LUMO gap               0.443461321859 eV   ::
         ::.................................................::
         :: SCC energy                -21.085420351789 Eh   ::
         :: -> isotropic ES             0.028938348375 Eh   ::
         :: -> anisotropic ES           0.003839133228 Eh   ::
         :: -> anisotropic XC           0.026057712220 Eh   ::
         :: -> dispersion              -0.005806316808 Eh   ::
         :: repulsion energy            0.245957098641 Eh   ::
         :: add. restraining            0.000000000000 Eh   ::
         :::::::::::::::::::::::::::::::::::::::::::::::::::::

           -------------------------------------------------
          |                Property Printout                |
           -------------------------------------------------

    * Orbital Energies and Occupations

         #    Occupation            Energy/Eh            Energy/eV
      -------------------------------------------------------------
         1        2.0000           -0.7445777             -20.2610
       ...           ...                  ...                  ...
         6        2.0000           -0.6375757             -17.3493
         7        2.0000           -0.6103593             -16.6087
         8        2.0000           -0.5965105             -16.2319
         9        2.0000           -0.5918805             -16.1059
        10        2.0000           -0.5832845             -15.8720
        11        2.0000           -0.5764113             -15.6850
        12        2.0000           -0.5464014             -14.8683
        13        2.0000           -0.5246095             -14.2754
        14        2.0000           -0.5123392             -13.9415
        15        2.0000           -0.4919542             -13.3868
        16        2.0000           -0.4359587             -11.8630
        17        2.0000           -0.4290855             -11.6760
        18        1.9996           -0.3752568             -10.2113 (HOMO)
        19        0.0004           -0.3589599              -9.7678 (LUMO)
        20                         -0.3324384              -9.0461
        21                         -0.2591710              -7.0524
        22                         -0.2410113              -6.5583
        23                          0.0280082               0.7621
        24                          0.0700987               1.9075
        25                          0.1025978               2.7918
        26                          0.2032431               5.5305
        27                          0.3136446               8.5347
        28                          0.5646496              15.3649
        29                          0.6352149              17.2851
        30                          0.7335406              19.9607
      -------------------------------------------------------------
                  HL-Gap            0.0162969 Eh            0.4435 eV
             Fermi-level           -0.3671083 Eh           -9.9895 eV

   #   Z        covCN         q      C6AA      α(0)
   1   7 N      1.780    -0.284    28.194     7.864
   2   6 C      2.806     0.166    24.409     8.094
   3   7 N      1.910     0.114    19.915     6.616
   4   7 N      0.985    -0.094    22.709     6.853
   5   8 O      0.926    -0.298    19.714     5.954
   6   7 N      1.838     0.166    19.051     6.468
   7   6 C      2.834    -0.032    28.778     8.791
   8   1 H      0.860     0.176     1.235     1.741
   9   1 H      0.926     0.085     1.925     2.170

 Mol. C6AA /au·bohr⁶  :       1301.789022
 Mol. C8AA /au·bohr⁸  :      29765.855648
 Mol. α(0) /au        :         54.551764


Wiberg/Mayer (AO) data.
largest (>0.10) Wiberg bond orders for each atom
          total WBO             WBO to atom ...
     1  N   3.141        C    2 1.761    H    8 0.929    N    6 0.122    N    4 0.109    O    5 0.101
     2  C   3.939        N    1 1.761    N    3 1.079    C    7 0.868    N    4 0.123
     3  N   3.666        N    4 2.276    C    2 1.079
     4  N   2.945        N    3 2.276    N    6 0.181    O    5 0.177    C    2 0.123    N    1 0.109
     5  O   2.186        N    6 1.453    C    7 0.306    N    4 0.177    N    1 0.101
     6  N   3.596        C    7 1.694    O    5 1.453    N    4 0.181    N    1 0.122
     7  C   3.938        N    6 1.694    H    9 0.943    C    2 0.868    O    5 0.306
     8  H   0.969        N    1 0.929
     9  H   0.993        C    7 0.943

molecular dipole:
                 x           y           z       tot (Debye)
 q only:       -0.672       0.480       0.584
   full:       -0.902       0.468       0.521       2.903
molecular quadrupole (traceless):
                xx          xy          yy          xz          yz          zz
 q only:       -0.536       3.450      -2.997       5.709      -2.967       3.533
  q+dip:       -1.197       3.029      -4.189       8.192      -2.390       5.386
   full:       -1.327       2.439      -3.790       8.377      -2.035       5.117


           -------------------------------------------------
          | TOTAL ENERGY              -20.839456058173 Eh   |
          | GRADIENT NORM               0.015839929063 Eh/α |
          | HOMO-LUMO GAP               0.443461321859 eV   |
           -------------------------------------------------

------------------------------------------------------------------------
 * finished run on 2021/06/02 at 10:00:07.710     
------------------------------------------------------------------------
 total:
 * wall-time:     0 d,  0 h,  0 min,  0.017 sec
 *  cpu-time:     0 d,  0 h,  0 min,  0.017 sec
 * ratio c/w:     0.988 speedup
 SCF:
 * wall-time:     0 d,  0 h,  0 min,  0.009 sec
 *  cpu-time:     0 d,  0 h,  0 min,  0.009 sec
 * ratio c/w:     1.000 speedup

