      -----------------------------------------------------------      
     |                   =====================                   |     
     |                           x T B                           |     
     |                   =====================                   |     
     |                         S. Grimme                         |     
     |          Mulliken Center for Theoretical Chemistry        |     
     |                    University of Bonn                     |     
     |                 Version 6.1.4 (SAW190525)                 |     
      -----------------------------------------------------------      

   This program is distributed in the hope that it will be useful,
   but WITHOUT ANY WARRANTY; without even the implied warranty of
   MERCHANTABILITY or FITNESS FOR A PARTICULAR PURPOSE.
   
   FOR NON-COMMERCIAL, ACADEMIA USE ONLY.
   
   Cite this work as:
   S. Grimme, C. Bannwarth, P. Shushkov, J. Comput. Theory Chem., 2017,
   13, 1989-2009. DOI: 10.1021/acs.jctc.7b00118
   C. Bannwarth, S. Ehlert and S. Grimme., J. Comput. Theory Chem., 2019,
   just accepted. DOI: 10.1021/acs.jctc.8b01176
   
   for sTDA-xTB:
   S. Grimme and C. Bannwarth, J. Chem. Phys., 2016, 145, 054103.
   DOI: 10.1063/1.4959605
   
   in the mass-spec context:
   V. Asgeirsson, C. Bauer and S. Grimme, Chem. Sci., 2017, 8, 4879.
   DOI: 10.1039/c7sc00601b
   
   for metadynamics refer to:
   S. Grimme, J. Chem. Theory Comput. Article ASAP, 2019,
   DOI: 10.1021/acs.jctc.9b00143
   
   with help from (in alphabetical order)
   C. Bannwarth, F. Bohle, G. Brandenburg, E. Caldeweyher, M. Checinski,
   S. Dohm, S. Ehlert, S. Ehrlich, F. März, H. Neugebauer, J. Pisarek,
   P. Pracht, P. Shushkov, and S. Spicher.
   
 * started run on 2021/06/02 at 10:00:07.337     

           -------------------------------------------------
          |                Calculation Setup                |
           -------------------------------------------------

          program call               : /groups/kemi/koerstz/opt/xtb/6.1/bin/xtb 31.xyz --gfn2 --acc 0.2 --chrg 0
          hostname                   : node305
          coordinate file            : 31.xyz
          omp threads                :                     1
          number of atoms            :                     9
          number of electrons        :                    36
          charge                     :                     0
          spin                       :                   0.0
          first test random number   :      0.37412335854046


########################################################################
# WARNING! Please study the warnings concerning your input carefully
#  - XTBPATH is not set, using XTBHOME instead
########################################################################

           ------------------------------------------------- 
          |                 G F N 2 - x T B                 |
          | Geometry, Frequencies, Noncovalent interactions |
          |            JCTC 2018 parametrisation            |
           ------------------------------------------------- 
             k(s)              :                1.8500
             k(p)              :                2.2300
             k(d)              :                2.2300
             k(f)              :                2.0000
             kEN (H0ij)        :               -2.0000
             D4 a1             :                0.5200
             D4 a2             :                5.0000
             D4 s6             :                1.0000
             D4 s8             :                2.7000
             D4 s9             :                5.0000
             alphaj            :                2.0000

  Z AO/shell   Hii/eV     exponent
  1     Wed Apr 25 08:07:45 CEST 2018   EN: 2.200 GM2: 0.406  GM3: 0.0800  RAES: 1.40
     1s    -10.707211    1.230000
  6     Wed Apr 25 08:07:45 CEST 2018   EN: 2.550 GM2: 0.538  GM3: 0.1500  RAES: 3.00
     2s    -13.970922    2.096432
     2p    -10.063292    1.800000
  7     Wed Apr 25 08:07:45 CEST 2018   EN: 3.040 GM2: 0.461  GM3:-0.0640  RAES: 1.90
     2s    -16.686243    2.339881
     2p    -12.523956    2.014332
  8     Wed Apr 25 08:07:45 CEST 2018   EN: 3.440 GM2: 0.452  GM3:-0.0517  RAES: 1.80
     2s    -20.229985    2.439742
     2p    -15.503117    2.137023


            Z     q(EN)     CN     RAES       Cart. coordinates
     1  N   5.0   -0.44    2.01    1.90    -0.73409     0.51315    -1.99238
     2  C   4.0    0.32    3.01    3.02    -0.78149    -1.15301    -0.31799
     3  N   5.0   -0.13    2.02    1.90    -2.70822    -2.82902     0.15935
     4  N   5.0   -0.16    1.01    1.90    -4.02238    -3.66241     1.64857
     5  O   6.0   -0.09    1.00    1.80     3.94504    -3.89824    -1.78395
     6  N   5.0   -0.16    2.00    1.90     3.36084    -2.99720     0.24012
     7  C   4.0    0.15    3.01    3.02     1.50696    -1.88351     1.20603
     8  H   1.0    0.33    1.00    1.43    -2.17257     0.64966    -3.24178
     9  H   1.0    0.18    1.00    1.43     1.56070    -1.39162     3.17935

           ------------------------------------------------- 
          |        Self-Consistent Charge Iterations        |
           ------------------------------------------------- 
q/qsh data taken from xtbrestart
CAMM data taken from xtbrestart

          ...................................................
          :                      SETUP                      :
          :.................................................:
          :  # basis functions                  30          :
          :  # atomic orbitals                  30          :
          :  # shells                           16          :
          :  # electrons                        36          :
          :  max. iterations                   250          :
          :  Hamiltonian                  GFN2-xTB          :
          :  restarted?                       true          :
          :  GBSA solvation                  false          :
          :  PC potential                    false          :
          :  electronic temp.          300.0000000     K    :
          :  accuracy                    0.2000000          :
          :  -> integral cutoff          0.3198970E+02      :
          :  -> integral neglect         0.2000000E-08      :
          :  -> SCF convergence          0.2000000E-06 Eh   :
          :  -> wf. convergence          0.2000000E-04 e    :
          :  Broyden damping             0.4000000          :
          ...................................................

 iter      E             dE          RMSdq      gap      omega  full diag
   1    -20.7944056 -0.207944E+02  0.712E+00    0.67       0.0  T
   2    -20.7439217  0.504840E-01  0.724E+00    2.25       1.0  T
   3    -20.9961209 -0.252199E+00  0.398E+00    1.08       1.0  T
   4    -20.6821181  0.314003E+00  0.535E+00    0.70       1.0  T
   5    -21.0699220 -0.387804E+00  0.157E+00    0.63       1.0  T
   6    -21.0705291 -0.607102E-03  0.122E+00    0.48       1.0  T
   7    -21.0866071 -0.160780E-01  0.573E-01    0.54       1.0  T
   8    -21.0802644  0.634268E-02  0.820E-01    0.45       1.0  T
   9    -21.0867715 -0.650711E-02  0.424E-01    0.45       1.0  T
  10    -21.0874372 -0.665663E-03  0.352E-01    0.45       1.0  T
  11    -21.0890561 -0.161887E-02  0.612E-02    0.47       1.0  T
  12    -21.0890976 -0.415149E-04  0.220E-02    0.46       1.5  T
  13    -21.0891029 -0.537344E-05  0.822E-03    0.46       4.1  T
  14    -21.0891036 -0.672020E-06  0.379E-03    0.46       8.8  T
  15    -21.0891037 -0.908582E-07  0.268E-03    0.46      12.4  T
  16    -21.0891038 -0.912215E-07  0.714E-04    0.46      46.7  T
  17    -21.0891038 -0.470624E-08  0.382E-04    0.46      87.3  T
  18    -21.0891038 -0.196934E-08  0.173E-05    0.46    1925.6  T
  19    -21.0891038 -0.315836E-11  0.536E-06    0.46    6216.7  T

   *** convergence criteria satisfied after 19 iterations ***

         #    Occupation            Energy/Eh            Energy/eV
      -------------------------------------------------------------
         1        2.0000           -0.7449092             -20.2700
       ...           ...                  ...                  ...
        12        2.0000           -0.5469858             -14.8842
        13        2.0000           -0.5234295             -14.2432
        14        2.0000           -0.5125112             -13.9461
        15        2.0000           -0.4924245             -13.3996
        16        2.0000           -0.4359250             -11.8621
        17        2.0000           -0.4291555             -11.6779
        18        1.9997           -0.3745256             -10.1914 (HOMO)
        19        0.0003           -0.3575217              -9.7287 (LUMO)
        20                         -0.3323837              -9.0446
        21                         -0.2626984              -7.1484
        22                         -0.2335972              -6.3565
        23                          0.0319905               0.8705
       ...                                ...                  ...
        30                          0.7262484              19.7622
      -------------------------------------------------------------
                  HL-Gap            0.0170039 Eh            0.4627 eV
             Fermi-level           -0.3660236 Eh           -9.9600 eV

 SCC (total)                   0 d,  0 h,  0 min,  0.009 sec
 SCC setup                      ...        0 min,  0.000 sec (  1.436%)
 Dispersion                     ...        0 min,  0.000 sec (  0.670%)
 integral evaluation            ...        0 min,  0.001 sec ( 12.293%)
 zeroth order Hamiltonian       ...        0 min,  0.000 sec (  0.356%)
 iterations                     ...        0 min,  0.005 sec ( 60.854%)
 molecular gradient             ...        0 min,  0.002 sec ( 22.222%)
 printout                       ...        0 min,  0.000 sec (  1.798%)

         :::::::::::::::::::::::::::::::::::::::::::::::::::::
         ::                     SUMMARY                     ::
         :::::::::::::::::::::::::::::::::::::::::::::::::::::
         :: total energy              -20.839981435931 Eh   ::
         :: gradient norm               0.014886829759 Eh/α ::
         :: HOMO-LUMO gap               0.462700517091 eV   ::
         ::.................................................::
         :: SCC energy                -21.089103803537 Eh   ::
         :: -> isotropic ES             0.028230517743 Eh   ::
         :: -> anisotropic ES           0.003996569317 Eh   ::
         :: -> anisotropic XC           0.025823612118 Eh   ::
         :: -> dispersion              -0.005794848543 Eh   ::
         :: repulsion energy            0.249115545577 Eh   ::
         :: add. restraining            0.000000000000 Eh   ::
         :::::::::::::::::::::::::::::::::::::::::::::::::::::

           -------------------------------------------------
          |                Property Printout                |
           -------------------------------------------------

    * Orbital Energies and Occupations

         #    Occupation            Energy/Eh            Energy/eV
      -------------------------------------------------------------
         1        2.0000           -0.7449092             -20.2700
       ...           ...                  ...                  ...
         6        2.0000           -0.6375142             -17.3476
         7        2.0000           -0.6108161             -16.6212
         8        2.0000           -0.5958328             -16.2134
         9        2.0000           -0.5920742             -16.1112
        10        2.0000           -0.5847374             -15.9115
        11        2.0000           -0.5756845             -15.6652
        12        2.0000           -0.5469858             -14.8842
        13        2.0000           -0.5234295             -14.2432
        14        2.0000           -0.5125112             -13.9461
        15        2.0000           -0.4924245             -13.3996
        16        2.0000           -0.4359250             -11.8621
        17        2.0000           -0.4291555             -11.6779
        18        1.9997           -0.3745256             -10.1914 (HOMO)
        19        0.0003           -0.3575217              -9.7287 (LUMO)
        20                         -0.3323837              -9.0446
        21                         -0.2626984              -7.1484
        22                         -0.2335972              -6.3565
        23                          0.0319905               0.8705
        24                          0.0709120               1.9296
        25                          0.1056726               2.8755
        26                          0.2064728               5.6184
        27                          0.3162522               8.6057
        28                          0.5687923              15.4776
        29                          0.6526928              17.7607
        30                          0.7262484              19.7622
      -------------------------------------------------------------
                  HL-Gap            0.0170039 Eh            0.4627 eV
             Fermi-level           -0.3660236 Eh           -9.9600 eV

   #   Z        covCN         q      C6AA      α(0)
   1   7 N      1.780    -0.280    28.082     7.848
   2   6 C      2.807     0.165    24.427     8.097
   3   7 N      1.908     0.108    20.022     6.634
   4   7 N      0.986    -0.097    22.764     6.861
   5   8 O      0.926    -0.293    19.628     5.942
   6   7 N      1.838     0.169    19.006     6.461
   7   6 C      2.833    -0.032    28.796     8.794
   8   1 H      0.860     0.178     1.226     1.735
   9   1 H      0.926     0.083     1.951     2.184

 Mol. C6AA /au·bohr⁶  :       1301.875950
 Mol. C8AA /au·bohr⁸  :      29767.050945
 Mol. α(0) /au        :         54.554944


Wiberg/Mayer (AO) data.
largest (>0.10) Wiberg bond orders for each atom
          total WBO             WBO to atom ...
     1  N   3.142        C    2 1.783    H    8 0.928    N    6 0.114    N    4 0.104
     2  C   3.939        N    1 1.783    N    3 1.055    C    7 0.876    N    4 0.115
     3  N   3.648        N    4 2.280    C    2 1.055
     4  N   2.943        N    3 2.280    N    6 0.186    O    5 0.181    C    2 0.115    N    1 0.104
     5  O   2.195        N    6 1.458    C    7 0.304    N    4 0.181
     6  N   3.596        C    7 1.689    O    5 1.458    N    4 0.186    N    1 0.114
     7  C   3.938        N    6 1.689    H    9 0.943    C    2 0.876    O    5 0.304
     8  H   0.968        N    1 0.928
     9  H   0.993        C    7 0.943

molecular dipole:
                 x           y           z       tot (Debye)
 q only:       -0.718       0.414       0.573
   full:       -0.977       0.401       0.518       2.989
molecular quadrupole (traceless):
                xx          xy          yy          xz          yz          zz
 q only:       -1.151       3.169      -2.042       6.049      -2.913       3.193
  q+dip:       -1.958       2.768      -2.852       8.737      -2.290       4.809
   full:       -2.097       2.246      -2.241       8.975      -1.810       4.338


           -------------------------------------------------
          | TOTAL ENERGY              -20.839981435931 Eh   |
          | GRADIENT NORM               0.014886829759 Eh/α |
          | HOMO-LUMO GAP               0.462700517091 eV   |
           -------------------------------------------------

------------------------------------------------------------------------
 * finished run on 2021/06/02 at 10:00:07.355     
------------------------------------------------------------------------
 total:
 * wall-time:     0 d,  0 h,  0 min,  0.018 sec
 *  cpu-time:     0 d,  0 h,  0 min,  0.018 sec
 * ratio c/w:     0.986 speedup
 SCF:
 * wall-time:     0 d,  0 h,  0 min,  0.009 sec
 *  cpu-time:     0 d,  0 h,  0 min,  0.009 sec
 * ratio c/w:     1.000 speedup

