      -----------------------------------------------------------      
     |                   =====================                   |     
     |                           x T B                           |     
     |                   =====================                   |     
     |                         S. Grimme                         |     
     |          Mulliken Center for Theoretical Chemistry        |     
     |                    University of Bonn                     |     
     |                 Version 6.1.4 (SAW190525)                 |     
      -----------------------------------------------------------      

   This program is distributed in the hope that it will be useful,
   but WITHOUT ANY WARRANTY; without even the implied warranty of
   MERCHANTABILITY or FITNESS FOR A PARTICULAR PURPOSE.
   
   FOR NON-COMMERCIAL, ACADEMIA USE ONLY.
   
   Cite this work as:
   S. Grimme, C. Bannwarth, P. Shushkov, J. Comput. Theory Chem., 2017,
   13, 1989-2009. DOI: 10.1021/acs.jctc.7b00118
   C. Bannwarth, S. Ehlert and S. Grimme., J. Comput. Theory Chem., 2019,
   just accepted. DOI: 10.1021/acs.jctc.8b01176
   
   for sTDA-xTB:
   S. Grimme and C. Bannwarth, J. Chem. Phys., 2016, 145, 054103.
   DOI: 10.1063/1.4959605
   
   in the mass-spec context:
   V. Asgeirsson, C. Bauer and S. Grimme, Chem. Sci., 2017, 8, 4879.
   DOI: 10.1039/c7sc00601b
   
   for metadynamics refer to:
   S. Grimme, J. Chem. Theory Comput. Article ASAP, 2019,
   DOI: 10.1021/acs.jctc.9b00143
   
   with help from (in alphabetical order)
   C. Bannwarth, F. Bohle, G. Brandenburg, E. Caldeweyher, M. Checinski,
   S. Dohm, S. Ehlert, S. Ehrlich, F. März, H. Neugebauer, J. Pisarek,
   P. Pracht, P. Shushkov, and S. Spicher.
   
 * started run on 2021/06/02 at 10:00:07.053     

           -------------------------------------------------
          |                Calculation Setup                |
           -------------------------------------------------

          program call               : /groups/kemi/koerstz/opt/xtb/6.1/bin/xtb 34.xyz --gfn2 --acc 0.2 --chrg 0
          hostname                   : node305
          coordinate file            : 34.xyz
          omp threads                :                     1
          number of atoms            :                     9
          number of electrons        :                    36
          charge                     :                     0
          spin                       :                   0.0
          first test random number   :      0.02057217655174


########################################################################
# WARNING! Please study the warnings concerning your input carefully
#  - XTBPATH is not set, using XTBHOME instead
########################################################################

           ------------------------------------------------- 
          |                 G F N 2 - x T B                 |
          | Geometry, Frequencies, Noncovalent interactions |
          |            JCTC 2018 parametrisation            |
           ------------------------------------------------- 
             k(s)              :                1.8500
             k(p)              :                2.2300
             k(d)              :                2.2300
             k(f)              :                2.0000
             kEN (H0ij)        :               -2.0000
             D4 a1             :                0.5200
             D4 a2             :                5.0000
             D4 s6             :                1.0000
             D4 s8             :                2.7000
             D4 s9             :                5.0000
             alphaj            :                2.0000

  Z AO/shell   Hii/eV     exponent
  1     Wed Apr 25 08:07:45 CEST 2018   EN: 2.200 GM2: 0.406  GM3: 0.0800  RAES: 1.40
     1s    -10.707211    1.230000
  6     Wed Apr 25 08:07:45 CEST 2018   EN: 2.550 GM2: 0.538  GM3: 0.1500  RAES: 3.00
     2s    -13.970922    2.096432
     2p    -10.063292    1.800000
  7     Wed Apr 25 08:07:45 CEST 2018   EN: 3.040 GM2: 0.461  GM3:-0.0640  RAES: 1.90
     2s    -16.686243    2.339881
     2p    -12.523956    2.014332
  8     Wed Apr 25 08:07:45 CEST 2018   EN: 3.440 GM2: 0.452  GM3:-0.0517  RAES: 1.80
     2s    -20.229985    2.439742
     2p    -15.503117    2.137023


            Z     q(EN)     CN     RAES       Cart. coordinates
     1  N   5.0   -0.43    2.01    1.90    -0.72721     0.35133    -2.10910
     2  C   4.0    0.32    3.00    3.02    -0.78882    -1.25789    -0.35845
     3  N   5.0   -0.14    2.02    1.90    -2.82470    -2.70844     0.25906
     4  N   5.0   -0.15    1.00    1.90    -4.28957    -3.34842     1.71625
     5  O   6.0   -0.09    1.00    1.80     4.42592    -3.61523    -1.71810
     6  N   5.0   -0.16    2.00    1.90     3.52385    -2.82788     0.20576
     7  C   4.0    0.14    3.01    3.02     1.50640    -1.97033     1.14608
     8  H   1.0    0.33    1.00    1.43    -2.28263     0.50682    -3.21325
     9  H   1.0    0.18    1.00    1.43     1.41155    -1.78215     3.16906

           ------------------------------------------------- 
          |        Self-Consistent Charge Iterations        |
           ------------------------------------------------- 

          ...................................................
          :                      SETUP                      :
          :.................................................:
          :  # basis functions                  30          :
          :  # atomic orbitals                  30          :
          :  # shells                           16          :
          :  # electrons                        36          :
          :  max. iterations                   250          :
          :  Hamiltonian                  GFN2-xTB          :
          :  restarted?                      false          :
          :  GBSA solvation                  false          :
          :  PC potential                    false          :
          :  electronic temp.          300.0000000     K    :
          :  accuracy                    0.2000000          :
          :  -> integral cutoff          0.3198970E+02      :
          :  -> integral neglect         0.2000000E-08      :
          :  -> SCF convergence          0.2000000E-06 Eh   :
          :  -> wf. convergence          0.2000000E-04 e    :
          :  Broyden damping             0.4000000          :
          ...................................................

 iter      E             dE          RMSdq      gap      omega  full diag
   1    -20.8626416 -0.208626E+02  0.680E+00    1.04       0.0  T
   2    -20.5365274  0.326114E+00  0.618E+00    0.77       1.0  T
   3    -20.8448482 -0.308321E+00  0.538E+00    1.98       1.0  T
   4    -20.9776804 -0.132832E+00  0.334E+00    0.97       1.0  T
   5    -20.9731697  0.451074E-02  0.280E+00    0.44       1.0  T
   6    -21.0828887 -0.109719E+00  0.763E-01    0.44       1.0  T
   7    -21.0846089 -0.172011E-02  0.418E-01    0.40       1.0  T
   8    -21.0832766  0.133228E-02  0.354E-01    0.36       1.0  T
   9    -21.0847980 -0.152142E-02  0.758E-02    0.36       1.0  T
  10    -21.0845019  0.296125E-03  0.155E-01    0.36       1.0  T
  11    -21.0847273 -0.225429E-03  0.883E-02    0.37       1.0  T
  12    -21.0848344 -0.107145E-03  0.141E-02    0.37       2.4  T
  13    -21.0848254  0.907118E-05  0.286E-02    0.37       1.2  T
  14    -21.0848366 -0.112401E-04  0.272E-03    0.36      12.2  T
  15    -21.0848367 -0.818395E-07  0.503E-04    0.36      66.3  T
  16    -21.0848367 -0.200869E-08  0.978E-05    0.36     340.8  T
  17    -21.0848367  0.132324E-09  0.119E-04    0.36     280.5  T

   *** convergence criteria satisfied after 17 iterations ***

         #    Occupation            Energy/Eh            Energy/eV
      -------------------------------------------------------------
         1        2.0000           -0.7510607             -20.4374
       ...           ...                  ...                  ...
        12        2.0000           -0.5466666             -14.8756
        13        2.0000           -0.5232625             -14.2387
        14        2.0000           -0.5123598             -13.9420
        15        2.0000           -0.4927094             -13.4073
        16        2.0000           -0.4338464             -11.8056
        17        2.0000           -0.4305045             -11.7146
        18        1.9983           -0.3706644             -10.0863 (HOMO)
        19        0.0017           -0.3572576              -9.7215 (LUMO)
        20                         -0.3289342              -8.9508
        21                         -0.2715771              -7.3900
        22                         -0.2214203              -6.0252
        23                          0.0341926               0.9304
       ...                                ...                  ...
        30                          0.7408589              20.1598
      -------------------------------------------------------------
                  HL-Gap            0.0134068 Eh            0.3648 eV
             Fermi-level           -0.3639610 Eh           -9.9039 eV

 SCC (total)                   0 d,  0 h,  0 min,  0.009 sec
 SCC setup                      ...        0 min,  0.000 sec (  1.578%)
 Dispersion                     ...        0 min,  0.000 sec (  0.762%)
 integral evaluation            ...        0 min,  0.001 sec ( 12.787%)
 zeroth order Hamiltonian       ...        0 min,  0.000 sec (  1.116%)
 iterations                     ...        0 min,  0.005 sec ( 58.153%)
 molecular gradient             ...        0 min,  0.002 sec ( 22.844%)
 printout                       ...        0 min,  0.000 sec (  2.329%)

         :::::::::::::::::::::::::::::::::::::::::::::::::::::
         ::                     SUMMARY                     ::
         :::::::::::::::::::::::::::::::::::::::::::::::::::::
         :: total energy              -20.839454406017 Eh   ::
         :: gradient norm               0.029860079959 Eh/α ::
         :: HOMO-LUMO gap               0.364818040746 eV   ::
         ::.................................................::
         :: SCC energy                -21.084836688565 Eh   ::
         :: -> isotropic ES             0.026098435926 Eh   ::
         :: -> anisotropic ES           0.004381933708 Eh   ::
         :: -> anisotropic XC           0.026112497289 Eh   ::
         :: -> dispersion              -0.005701280716 Eh   ::
         :: repulsion energy            0.245376167323 Eh   ::
         :: add. restraining            0.000000000000 Eh   ::
         :::::::::::::::::::::::::::::::::::::::::::::::::::::

           -------------------------------------------------
          |                Property Printout                |
           -------------------------------------------------

    * Orbital Energies and Occupations

         #    Occupation            Energy/Eh            Energy/eV
      -------------------------------------------------------------
         1        2.0000           -0.7510607             -20.4374
       ...           ...                  ...                  ...
         6        2.0000           -0.6376409             -17.3511
         7        2.0000           -0.6081178             -16.5477
         8        2.0000           -0.5979591             -16.2713
         9        2.0000           -0.5957232             -16.2105
        10        2.0000           -0.5887550             -16.0208
        11        2.0000           -0.5748130             -15.6415
        12        2.0000           -0.5466666             -14.8756
        13        2.0000           -0.5232625             -14.2387
        14        2.0000           -0.5123598             -13.9420
        15        2.0000           -0.4927094             -13.4073
        16        2.0000           -0.4338464             -11.8056
        17        2.0000           -0.4305045             -11.7146
        18        1.9983           -0.3706644             -10.0863 (HOMO)
        19        0.0017           -0.3572576              -9.7215 (LUMO)
        20                         -0.3289342              -8.9508
        21                         -0.2715771              -7.3900
        22                         -0.2214203              -6.0252
        23                          0.0341926               0.9304
        24                          0.0701949               1.9101
        25                          0.1111745               3.0252
        26                          0.2167304               5.8975
        27                          0.2947947               8.0218
        28                          0.5385136              14.6537
        29                          0.6775592              18.4373
        30                          0.7408589              20.1598
      -------------------------------------------------------------
                  HL-Gap            0.0134068 Eh            0.3648 eV
             Fermi-level           -0.3639610 Eh           -9.9039 eV

   #   Z        covCN         q      C6AA      α(0)
   1   7 N      1.782    -0.288    28.288     7.877
   2   6 C      2.805     0.164    24.444     8.100
   3   7 N      1.907     0.102    20.110     6.649
   4   7 N      0.985    -0.103    22.888     6.880
   5   8 O      0.925    -0.270    19.226     5.880
   6   7 N      1.836     0.181    18.809     6.427
   7   6 C      2.829    -0.038    28.945     8.816
   8   1 H      0.860     0.172     1.259     1.757
   9   1 H      0.926     0.079     1.986     2.204

 Mol. C6AA /au·bohr⁶  :       1303.096744
 Mol. C8AA /au·bohr⁸  :      29789.994739
 Mol. α(0) /au        :         54.590550


Wiberg/Mayer (AO) data.
largest (>0.10) Wiberg bond orders for each atom
          total WBO             WBO to atom ...
     1  N   3.116        C    2 1.743    H    8 0.933    N    6 0.112    N    4 0.111    O    5 0.103
     2  C   3.943        N    1 1.743    N    3 1.081    C    7 0.899    N    4 0.116
     3  N   3.656        N    4 2.257    C    2 1.081
     4  N   2.937        N    3 2.257    N    6 0.200    O    5 0.183    C    2 0.116    N    1 0.111
     5  O   2.230        N    6 1.483    C    7 0.306    N    4 0.183    N    1 0.103
     6  N   3.616        C    7 1.668    O    5 1.483    N    4 0.200    N    1 0.112
     7  C   3.936        N    6 1.668    H    9 0.944    C    2 0.899    O    5 0.306
     8  H   0.970        N    1 0.933
     9  H   0.994        C    7 0.944

molecular dipole:
                 x           y           z       tot (Debye)
 q only:       -0.664       0.246       0.553
   full:       -0.932       0.202       0.513       2.752
molecular quadrupole (traceless):
                xx          xy          yy          xz          yz          zz
 q only:       -2.235       2.659      -0.603       6.042      -2.427       2.838
  q+dip:       -3.351       2.358      -0.898       8.780      -1.832       4.249
   full:       -3.798       1.893       0.013       9.195      -1.344       3.785


           -------------------------------------------------
          | TOTAL ENERGY              -20.839454406017 Eh   |
          | GRADIENT NORM               0.029860079959 Eh/α |
          | HOMO-LUMO GAP               0.364818040746 eV   |
           -------------------------------------------------

------------------------------------------------------------------------
 * finished run on 2021/06/02 at 10:00:07.070     
------------------------------------------------------------------------
 total:
 * wall-time:     0 d,  0 h,  0 min,  0.016 sec
 *  cpu-time:     0 d,  0 h,  0 min,  0.016 sec
 * ratio c/w:     0.984 speedup
 SCF:
 * wall-time:     0 d,  0 h,  0 min,  0.009 sec
 *  cpu-time:     0 d,  0 h,  0 min,  0.009 sec
 * ratio c/w:     0.994 speedup

