      -----------------------------------------------------------      
     |                   =====================                   |     
     |                           x T B                           |     
     |                   =====================                   |     
     |                         S. Grimme                         |     
     |          Mulliken Center for Theoretical Chemistry        |     
     |                    University of Bonn                     |     
     |                 Version 6.1.4 (SAW190525)                 |     
      -----------------------------------------------------------      

   This program is distributed in the hope that it will be useful,
   but WITHOUT ANY WARRANTY; without even the implied warranty of
   MERCHANTABILITY or FITNESS FOR A PARTICULAR PURPOSE.
   
   FOR NON-COMMERCIAL, ACADEMIA USE ONLY.
   
   Cite this work as:
   S. Grimme, C. Bannwarth, P. Shushkov, J. Comput. Theory Chem., 2017,
   13, 1989-2009. DOI: 10.1021/acs.jctc.7b00118
   C. Bannwarth, S. Ehlert and S. Grimme., J. Comput. Theory Chem., 2019,
   just accepted. DOI: 10.1021/acs.jctc.8b01176
   
   for sTDA-xTB:
   S. Grimme and C. Bannwarth, J. Chem. Phys., 2016, 145, 054103.
   DOI: 10.1063/1.4959605
   
   in the mass-spec context:
   V. Asgeirsson, C. Bauer and S. Grimme, Chem. Sci., 2017, 8, 4879.
   DOI: 10.1039/c7sc00601b
   
   for metadynamics refer to:
   S. Grimme, J. Chem. Theory Comput. Article ASAP, 2019,
   DOI: 10.1021/acs.jctc.9b00143
   
   with help from (in alphabetical order)
   C. Bannwarth, F. Bohle, G. Brandenburg, E. Caldeweyher, M. Checinski,
   S. Dohm, S. Ehlert, S. Ehrlich, F. März, H. Neugebauer, J. Pisarek,
   P. Pracht, P. Shushkov, and S. Spicher.
   
 * started run on 2021/06/02 at 10:00:08.076     

           -------------------------------------------------
          |                Calculation Setup                |
           -------------------------------------------------

          program call               : /groups/kemi/koerstz/opt/xtb/6.1/bin/xtb 35.xyz --gfn2 --acc 0.2 --chrg 0
          hostname                   : node305
          coordinate file            : 35.xyz
          omp threads                :                     1
          number of atoms            :                     9
          number of electrons        :                    36
          charge                     :                     0
          spin                       :                   0.0
          first test random number   :      0.57756344047044


########################################################################
# WARNING! Please study the warnings concerning your input carefully
#  - XTBPATH is not set, using XTBHOME instead
########################################################################

           ------------------------------------------------- 
          |                 G F N 2 - x T B                 |
          | Geometry, Frequencies, Noncovalent interactions |
          |            JCTC 2018 parametrisation            |
           ------------------------------------------------- 
             k(s)              :                1.8500
             k(p)              :                2.2300
             k(d)              :                2.2300
             k(f)              :                2.0000
             kEN (H0ij)        :               -2.0000
             D4 a1             :                0.5200
             D4 a2             :                5.0000
             D4 s6             :                1.0000
             D4 s8             :                2.7000
             D4 s9             :                5.0000
             alphaj            :                2.0000

  Z AO/shell   Hii/eV     exponent
  1     Wed Apr 25 08:07:45 CEST 2018   EN: 2.200 GM2: 0.406  GM3: 0.0800  RAES: 1.40
     1s    -10.707211    1.230000
  6     Wed Apr 25 08:07:45 CEST 2018   EN: 2.550 GM2: 0.538  GM3: 0.1500  RAES: 3.00
     2s    -13.970922    2.096432
     2p    -10.063292    1.800000
  7     Wed Apr 25 08:07:45 CEST 2018   EN: 3.040 GM2: 0.461  GM3:-0.0640  RAES: 1.90
     2s    -16.686243    2.339881
     2p    -12.523956    2.014332
  8     Wed Apr 25 08:07:45 CEST 2018   EN: 3.440 GM2: 0.452  GM3:-0.0517  RAES: 1.80
     2s    -20.229985    2.439742
     2p    -15.503117    2.137023


            Z     q(EN)     CN     RAES       Cart. coordinates
     1  N   5.0   -0.43    2.01    1.90    -0.71128     0.28148    -2.14107
     2  C   4.0    0.32    3.00    3.02    -0.79889    -1.27826    -0.33925
     3  N   5.0   -0.14    2.02    1.90    -2.84196    -2.68969     0.29606
     4  N   5.0   -0.16    1.01    1.90    -4.36513    -3.16919     1.75919
     5  O   6.0   -0.09    1.00    1.80     4.54547    -3.38001    -1.75101
     6  N   5.0   -0.16    2.00    1.90     3.50918    -2.82295     0.19694
     7  C   4.0    0.14    3.01    3.02     1.51355    -2.03308     1.16273
     8  H   1.0    0.33    1.00    1.43    -2.25599     0.40396    -3.27251
     9  H   1.0    0.18    1.00    1.43     1.35984    -1.96444     3.18624

           ------------------------------------------------- 
          |        Self-Consistent Charge Iterations        |
           ------------------------------------------------- 
q/qsh data taken from xtbrestart
CAMM data taken from xtbrestart

          ...................................................
          :                      SETUP                      :
          :.................................................:
          :  # basis functions                  30          :
          :  # atomic orbitals                  30          :
          :  # shells                           16          :
          :  # electrons                        36          :
          :  max. iterations                   250          :
          :  Hamiltonian                  GFN2-xTB          :
          :  restarted?                       true          :
          :  GBSA solvation                  false          :
          :  PC potential                    false          :
          :  electronic temp.          300.0000000     K    :
          :  accuracy                    0.2000000          :
          :  -> integral cutoff          0.3198970E+02      :
          :  -> integral neglect         0.2000000E-08      :
          :  -> SCF convergence          0.2000000E-06 Eh   :
          :  -> wf. convergence          0.2000000E-04 e    :
          :  Broyden damping             0.4000000          :
          ...................................................

 iter      E             dE          RMSdq      gap      omega  full diag
   1    -21.0733278 -0.210733E+02  0.269E+00    0.54       0.0  T
   2    -20.8613539  0.211974E+00  0.424E+00    0.55       1.0  T
   3    -20.9739321 -0.112578E+00  0.311E+00    0.88       1.0  T
   4    -21.0813539 -0.107422E+00  0.112E+00    0.48       1.0  T
   5    -21.0835415 -0.218761E-02  0.708E-01    0.47       1.0  T
   6    -21.0873966 -0.385506E-02  0.408E-01    0.44       1.0  T
   7    -21.0880939 -0.697352E-03  0.219E-01    0.42       1.0  T
   8    -21.0884893 -0.395360E-03  0.523E-02    0.40       1.0  T
   9    -21.0885015 -0.122197E-04  0.285E-02    0.40       1.2  T
  10    -21.0885017 -0.181952E-06  0.249E-02    0.40       1.3  T
  11    -21.0885100 -0.833000E-05  0.349E-03    0.40       9.6  T
  12    -21.0885098  0.200754E-06  0.496E-03    0.40       6.7  T
  13    -21.0885101 -0.284130E-06  0.168E-03    0.40      19.8  T
  14    -21.0885102 -0.299768E-07  0.755E-04    0.40      44.2  T
  15    -21.0885102 -0.771402E-08  0.342E-05    0.40     973.8  T
  16    -21.0885102  0.608118E-10  0.707E-05    0.40     471.6  T

   *** convergence criteria satisfied after 16 iterations ***

         #    Occupation            Energy/Eh            Energy/eV
      -------------------------------------------------------------
         1        2.0000           -0.7504187             -20.4199
       ...           ...                  ...                  ...
        12        2.0000           -0.5474649             -14.8973
        13        2.0000           -0.5227113             -14.2237
        14        2.0000           -0.5106871             -13.8965
        15        2.0000           -0.4915533             -13.3758
        16        2.0000           -0.4339581             -11.8086
        17        2.0000           -0.4332948             -11.7906
        18        1.9991           -0.3710725             -10.0974 (HOMO)
        19        0.0009           -0.3564872              -9.7005 (LUMO)
        20                         -0.3278720              -8.9219
        21                         -0.2726281              -7.4186
        22                         -0.2174541              -5.9172
        23                          0.0280585               0.7635
       ...                                ...                  ...
        30                          0.7435840              20.2339
      -------------------------------------------------------------
                  HL-Gap            0.0145853 Eh            0.3969 eV
             Fermi-level           -0.3637799 Eh           -9.8990 eV

 SCC (total)                   0 d,  0 h,  0 min,  0.008 sec
 SCC setup                      ...        0 min,  0.000 sec (  1.539%)
 Dispersion                     ...        0 min,  0.000 sec (  0.697%)
 integral evaluation            ...        0 min,  0.001 sec ( 13.169%)
 zeroth order Hamiltonian       ...        0 min,  0.000 sec (  0.397%)
 iterations                     ...        0 min,  0.005 sec ( 58.131%)
 molecular gradient             ...        0 min,  0.002 sec ( 23.640%)
 printout                       ...        0 min,  0.000 sec (  2.004%)

         :::::::::::::::::::::::::::::::::::::::::::::::::::::
         ::                     SUMMARY                     ::
         :::::::::::::::::::::::::::::::::::::::::::::::::::::
         :: total energy              -20.840488352314 Eh   ::
         :: gradient norm               0.014163425660 Eh/α ::
         :: HOMO-LUMO gap               0.396887298254 eV   ::
         ::.................................................::
         :: SCC energy                -21.088510162927 Eh   ::
         :: -> isotropic ES             0.026289271066 Eh   ::
         :: -> anisotropic ES           0.004531461007 Eh   ::
         :: -> anisotropic XC           0.025825971405 Eh   ::
         :: -> dispersion              -0.005696618225 Eh   ::
         :: repulsion energy            0.248016232139 Eh   ::
         :: add. restraining            0.000000000000 Eh   ::
         :::::::::::::::::::::::::::::::::::::::::::::::::::::

           -------------------------------------------------
          |                Property Printout                |
           -------------------------------------------------

    * Orbital Energies and Occupations

         #    Occupation            Energy/Eh            Energy/eV
      -------------------------------------------------------------
         1        2.0000           -0.7504187             -20.4199
       ...           ...                  ...                  ...
         6        2.0000           -0.6374968             -17.3472
         7        2.0000           -0.6073071             -16.5257
         8        2.0000           -0.5975199             -16.2593
         9        2.0000           -0.5959002             -16.2153
        10        2.0000           -0.5914071             -16.0930
        11        2.0000           -0.5734423             -15.6042
        12        2.0000           -0.5474649             -14.8973
        13        2.0000           -0.5227113             -14.2237
        14        2.0000           -0.5106871             -13.8965
        15        2.0000           -0.4915533             -13.3758
        16        2.0000           -0.4339581             -11.8086
        17        2.0000           -0.4332948             -11.7906
        18        1.9991           -0.3710725             -10.0974 (HOMO)
        19        0.0009           -0.3564872              -9.7005 (LUMO)
        20                         -0.3278720              -8.9219
        21                         -0.2726281              -7.4186
        22                         -0.2174541              -5.9172
        23                          0.0280585               0.7635
        24                          0.0785740               2.1381
        25                          0.1031604               2.8071
        26                          0.2094051               5.6982
        27                          0.2979347               8.1072
        28                          0.5312120              14.4550
        29                          0.7093802              19.3032
        30                          0.7435840              20.2339
      -------------------------------------------------------------
                  HL-Gap            0.0145853 Eh            0.3969 eV
             Fermi-level           -0.3637799 Eh           -9.8990 eV

   #   Z        covCN         q      C6AA      α(0)
   1   7 N      1.781    -0.288    28.300     7.878
   2   6 C      2.805     0.160    24.529     8.114
   3   7 N      1.907     0.102    20.122     6.651
   4   7 N      0.986    -0.108    22.973     6.893
   5   8 O      0.925    -0.272    19.247     5.884
   6   7 N      1.837     0.189    18.695     6.408
   7   6 C      2.827    -0.035    28.858     8.803
   8   1 H      0.860     0.172     1.262     1.760
   9   1 H      0.926     0.080     1.977     2.199

 Mol. C6AA /au·bohr⁶  :       1303.040439
 Mol. C8AA /au·bohr⁸  :      29789.467792
 Mol. α(0) /au        :         54.587939


Wiberg/Mayer (AO) data.
largest (>0.10) Wiberg bond orders for each atom
          total WBO             WBO to atom ...
     1  N   3.124        C    2 1.732    H    8 0.932    N    4 0.119    N    6 0.115    O    5 0.108
     2  C   3.940        N    1 1.732    N    3 1.096    C    7 0.884    N    4 0.122
     3  N   3.654        N    4 2.247    C    2 1.096
     4  N   2.934        N    3 2.247    N    6 0.198    O    5 0.182    C    2 0.122    N    1 0.119
     5  O   2.225        N    6 1.475    C    7 0.307    N    4 0.182    N    1 0.108
     6  N   3.634        C    7 1.698    O    5 1.475    N    4 0.198    N    1 0.115
     7  C   3.939        N    6 1.698    H    9 0.944    C    2 0.884    O    5 0.307
     8  H   0.970        N    1 0.932
     9  H   0.994        C    7 0.944

molecular dipole:
                 x           y           z       tot (Debye)
 q only:       -0.646       0.149       0.570
   full:       -0.907       0.090       0.531       2.682
molecular quadrupole (traceless):
                xx          xy          yy          xz          yz          zz
 q only:       -2.937       2.326       0.220       6.285      -2.395       2.717
  q+dip:       -4.287       2.044       0.185       9.150      -1.769       4.102
   full:       -4.767       1.641       1.154       9.666      -1.328       3.613


           -------------------------------------------------
          | TOTAL ENERGY              -20.840488352314 Eh   |
          | GRADIENT NORM               0.014163425660 Eh/α |
          | HOMO-LUMO GAP               0.396887298254 eV   |
           -------------------------------------------------

------------------------------------------------------------------------
 * finished run on 2021/06/02 at 10:00:08.093     
------------------------------------------------------------------------
 total:
 * wall-time:     0 d,  0 h,  0 min,  0.016 sec
 *  cpu-time:     0 d,  0 h,  0 min,  0.015 sec
 * ratio c/w:     0.984 speedup
 SCF:
 * wall-time:     0 d,  0 h,  0 min,  0.008 sec
 *  cpu-time:     0 d,  0 h,  0 min,  0.008 sec
 * ratio c/w:     1.000 speedup

