      -----------------------------------------------------------      
     |                   =====================                   |     
     |                           x T B                           |     
     |                   =====================                   |     
     |                         S. Grimme                         |     
     |          Mulliken Center for Theoretical Chemistry        |     
     |                    University of Bonn                     |     
     |                 Version 6.1.4 (SAW190525)                 |     
      -----------------------------------------------------------      

   This program is distributed in the hope that it will be useful,
   but WITHOUT ANY WARRANTY; without even the implied warranty of
   MERCHANTABILITY or FITNESS FOR A PARTICULAR PURPOSE.
   
   FOR NON-COMMERCIAL, ACADEMIA USE ONLY.
   
   Cite this work as:
   S. Grimme, C. Bannwarth, P. Shushkov, J. Comput. Theory Chem., 2017,
   13, 1989-2009. DOI: 10.1021/acs.jctc.7b00118
   C. Bannwarth, S. Ehlert and S. Grimme., J. Comput. Theory Chem., 2019,
   just accepted. DOI: 10.1021/acs.jctc.8b01176
   
   for sTDA-xTB:
   S. Grimme and C. Bannwarth, J. Chem. Phys., 2016, 145, 054103.
   DOI: 10.1063/1.4959605
   
   in the mass-spec context:
   V. Asgeirsson, C. Bauer and S. Grimme, Chem. Sci., 2017, 8, 4879.
   DOI: 10.1039/c7sc00601b
   
   for metadynamics refer to:
   S. Grimme, J. Chem. Theory Comput. Article ASAP, 2019,
   DOI: 10.1021/acs.jctc.9b00143
   
   with help from (in alphabetical order)
   C. Bannwarth, F. Bohle, G. Brandenburg, E. Caldeweyher, M. Checinski,
   S. Dohm, S. Ehlert, S. Ehrlich, F. März, H. Neugebauer, J. Pisarek,
   P. Pracht, P. Shushkov, and S. Spicher.
   
 * started run on 2021/06/02 at 10:00:08.346     

           -------------------------------------------------
          |                Calculation Setup                |
           -------------------------------------------------

          program call               : /groups/kemi/koerstz/opt/xtb/6.1/bin/xtb 36.xyz --gfn2 --acc 0.2 --chrg 0
          hostname                   : node305
          coordinate file            : 36.xyz
          omp threads                :                     1
          number of atoms            :                     9
          number of electrons        :                    36
          charge                     :                     0
          spin                       :                   0.0
          first test random number   :      0.27997477622603


########################################################################
# WARNING! Please study the warnings concerning your input carefully
#  - XTBPATH is not set, using XTBHOME instead
########################################################################

           ------------------------------------------------- 
          |                 G F N 2 - x T B                 |
          | Geometry, Frequencies, Noncovalent interactions |
          |            JCTC 2018 parametrisation            |
           ------------------------------------------------- 
             k(s)              :                1.8500
             k(p)              :                2.2300
             k(d)              :                2.2300
             k(f)              :                2.0000
             kEN (H0ij)        :               -2.0000
             D4 a1             :                0.5200
             D4 a2             :                5.0000
             D4 s6             :                1.0000
             D4 s8             :                2.7000
             D4 s9             :                5.0000
             alphaj            :                2.0000

  Z AO/shell   Hii/eV     exponent
  1     Wed Apr 25 08:07:45 CEST 2018   EN: 2.200 GM2: 0.406  GM3: 0.0800  RAES: 1.40
     1s    -10.707211    1.230000
  6     Wed Apr 25 08:07:45 CEST 2018   EN: 2.550 GM2: 0.538  GM3: 0.1500  RAES: 3.00
     2s    -13.970922    2.096432
     2p    -10.063292    1.800000
  7     Wed Apr 25 08:07:45 CEST 2018   EN: 3.040 GM2: 0.461  GM3:-0.0640  RAES: 1.90
     2s    -16.686243    2.339881
     2p    -12.523956    2.014332
  8     Wed Apr 25 08:07:45 CEST 2018   EN: 3.440 GM2: 0.452  GM3:-0.0517  RAES: 1.80
     2s    -20.229985    2.439742
     2p    -15.503117    2.137023


            Z     q(EN)     CN     RAES       Cart. coordinates
     1  N   5.0   -0.43    2.01    1.90    -0.72549     0.26797    -2.12428
     2  C   4.0    0.32    3.00    3.02    -0.81615    -1.30412    -0.30571
     3  N   5.0   -0.14    2.02    1.90    -2.84484    -2.68680     0.34247
     4  N   5.0   -0.15    1.01    1.90    -4.50530    -3.12957     1.65232
     5  O   6.0   -0.09    1.00    1.80     4.64636    -3.28373    -1.74276
     6  N   5.0   -0.16    2.00    1.90     3.54715    -2.77520     0.17264
     7  C   4.0    0.14    3.00    3.02     1.52941    -2.03415     1.17877
     8  H   1.0    0.33    1.00    1.43    -2.24941     0.33302    -3.29439
     9  H   1.0    0.18    0.99    1.43     1.37306    -2.03962     3.21827

           ------------------------------------------------- 
          |        Self-Consistent Charge Iterations        |
           ------------------------------------------------- 
q/qsh data taken from xtbrestart
CAMM data taken from xtbrestart

          ...................................................
          :                      SETUP                      :
          :.................................................:
          :  # basis functions                  30          :
          :  # atomic orbitals                  30          :
          :  # shells                           16          :
          :  # electrons                        36          :
          :  max. iterations                   250          :
          :  Hamiltonian                  GFN2-xTB          :
          :  restarted?                       true          :
          :  GBSA solvation                  false          :
          :  PC potential                    false          :
          :  electronic temp.          300.0000000     K    :
          :  accuracy                    0.2000000          :
          :  -> integral cutoff          0.3198970E+02      :
          :  -> integral neglect         0.2000000E-08      :
          :  -> SCF convergence          0.2000000E-06 Eh   :
          :  -> wf. convergence          0.2000000E-04 e    :
          :  Broyden damping             0.4000000          :
          ...................................................

 iter      E             dE          RMSdq      gap      omega  full diag
   1    -20.7356376 -0.207356E+02  0.731E+00    0.72       0.0  T
   2    -20.6703012  0.653364E-01  0.796E+00    1.95       1.0  T
   3    -20.9538498 -0.283549E+00  0.458E+00    1.10       1.0  T
   4    -20.7068007  0.247049E+00  0.517E+00    0.68       1.0  T
   5    -21.0707068 -0.363906E+00  0.124E+00    0.43       1.0  T
   6    -21.0822308 -0.115239E-01  0.552E-01    0.41       1.0  T
   7    -21.0792924  0.293836E-02  0.554E-01    0.41       1.0  T
   8    -21.0681162  0.111762E-01  0.103E+00    0.35       1.0  T
   9    -21.0813439 -0.132277E-01  0.324E-01    0.36       1.0  T
  10    -21.0795941  0.174977E-02  0.479E-01    0.35       1.0  T
  11    -21.0827149 -0.312078E-02  0.215E-02    0.36       1.6  T
  12    -21.0826577  0.571749E-04  0.659E-02    0.37       1.0  T
  13    -21.0827147 -0.570149E-04  0.930E-03    0.37       3.6  T
  14    -21.0827148 -0.370893E-07  0.816E-03    0.37       4.1  T
  15    -21.0827154 -0.642665E-06  0.412E-03    0.37       8.1  T
  16    -21.0827156 -0.223206E-06  0.272E-04    0.37     122.5  T
  17    -21.0827156 -0.606338E-09  0.539E-05    0.37     618.9  T
  18    -21.0827156  0.181256E-09  0.119E-04    0.37     281.0  T

   *** convergence criteria satisfied after 18 iterations ***

         #    Occupation            Energy/Eh            Energy/eV
      -------------------------------------------------------------
         1        2.0000           -0.7527527             -20.4834
       ...           ...                  ...                  ...
        12        2.0000           -0.5467720             -14.8784
        13        2.0000           -0.5223550             -14.2140
        14        2.0000           -0.5102275             -13.8840
        15        2.0000           -0.4884606             -13.2917
        16        2.0000           -0.4330689             -11.7844
        17        2.0000           -0.4308432             -11.7238
        18        1.9983           -0.3690354             -10.0420 (HOMO)
        19        0.0017           -0.3555646              -9.6754 (LUMO)
        20                         -0.3256715              -8.8620
        21                         -0.2742819              -7.4636
        22                         -0.2152391              -5.8570
        23                          0.0212426               0.5780
       ...                                ...                  ...
        30                          0.7757181              21.1084
      -------------------------------------------------------------
                  HL-Gap            0.0134708 Eh            0.3666 eV
             Fermi-level           -0.3623000 Eh           -9.8587 eV

 SCC (total)                   0 d,  0 h,  0 min,  0.008 sec
 SCC setup                      ...        0 min,  0.000 sec (  1.586%)
 Dispersion                     ...        0 min,  0.000 sec (  0.661%)
 integral evaluation            ...        0 min,  0.001 sec ( 12.635%)
 zeroth order Hamiltonian       ...        0 min,  0.000 sec (  0.372%)
 iterations                     ...        0 min,  0.005 sec ( 59.950%)
 molecular gradient             ...        0 min,  0.002 sec ( 22.519%)
 printout                       ...        0 min,  0.000 sec (  1.875%)

         :::::::::::::::::::::::::::::::::::::::::::::::::::::
         ::                     SUMMARY                     ::
         :::::::::::::::::::::::::::::::::::::::::::::::::::::
         :: total energy              -20.839365735640 Eh   ::
         :: gradient norm               0.029397078161 Eh/α ::
         :: HOMO-LUMO gap               0.366557843276 eV   ::
         ::.................................................::
         :: SCC energy                -21.082715640757 Eh   ::
         :: -> isotropic ES             0.025750124154 Eh   ::
         :: -> anisotropic ES           0.004621924642 Eh   ::
         :: -> anisotropic XC           0.026262292752 Eh   ::
         :: -> dispersion              -0.005669892549 Eh   ::
         :: repulsion energy            0.243344514347 Eh   ::
         :: add. restraining            0.000000000000 Eh   ::
         :::::::::::::::::::::::::::::::::::::::::::::::::::::

           -------------------------------------------------
          |                Property Printout                |
           -------------------------------------------------

    * Orbital Energies and Occupations

         #    Occupation            Energy/Eh            Energy/eV
      -------------------------------------------------------------
         1        2.0000           -0.7527527             -20.4834
       ...           ...                  ...                  ...
         6        2.0000           -0.6364559             -17.3188
         7        2.0000           -0.6072322             -16.5236
         8        2.0000           -0.5986657             -16.2905
         9        2.0000           -0.5968370             -16.2408
        10        2.0000           -0.5923513             -16.1187
        11        2.0000           -0.5733969             -15.6029
        12        2.0000           -0.5467720             -14.8784
        13        2.0000           -0.5223550             -14.2140
        14        2.0000           -0.5102275             -13.8840
        15        2.0000           -0.4884606             -13.2917
        16        2.0000           -0.4330689             -11.7844
        17        2.0000           -0.4308432             -11.7238
        18        1.9983           -0.3690354             -10.0420 (HOMO)
        19        0.0017           -0.3555646              -9.6754 (LUMO)
        20                         -0.3256715              -8.8620
        21                         -0.2742819              -7.4636
        22                         -0.2152391              -5.8570
        23                          0.0212426               0.5780
        24                          0.0806517               2.1946
        25                          0.0977847               2.6609
        26                          0.2076199               5.6496
        27                          0.2817324               7.6663
        28                          0.5031510              13.6914
        29                          0.7057181              19.2036
        30                          0.7757181              21.1084
      -------------------------------------------------------------
                  HL-Gap            0.0134708 Eh            0.3666 eV
             Fermi-level           -0.3623000 Eh           -9.8587 eV

   #   Z        covCN         q      C6AA      α(0)
   1   7 N      1.781    -0.296    28.488     7.905
   2   6 C      2.804     0.155    24.636     8.132
   3   7 N      1.907     0.111    19.961     6.624
   4   7 N      0.986    -0.108    22.981     6.894
   5   8 O      0.924    -0.263    19.093     5.860
   6   7 N      1.836     0.192    18.635     6.397
   7   6 C      2.824    -0.038    28.922     8.812
   8   1 H      0.860     0.166     1.294     1.782
   9   1 H      0.925     0.079     1.989     2.206

 Mol. C6AA /au·bohr⁶  :       1303.861296
 Mol. C8AA /au·bohr⁸  :      29805.240172
 Mol. α(0) /au        :         54.611179


Wiberg/Mayer (AO) data.
largest (>0.10) Wiberg bond orders for each atom
          total WBO             WBO to atom ...
     1  N   3.115        C    2 1.688    H    8 0.935    N    4 0.126    N    6 0.126    O    5 0.117
     2  C   3.939        N    1 1.688    N    3 1.128    C    7 0.885    N    4 0.133
     3  N   3.675        N    4 2.243    C    2 1.128
     4  N   2.937        N    3 2.243    N    6 0.194    O    5 0.176    C    2 0.133    N    1 0.126
     5  O   2.238        N    6 1.486    C    7 0.312    N    4 0.176    N    1 0.117
     6  N   3.642        C    7 1.691    O    5 1.486    N    4 0.194    N    1 0.126
     7  C   3.937        N    6 1.691    H    9 0.945    C    2 0.885    O    5 0.312
     8  H   0.972        N    1 0.935
     9  H   0.994        C    7 0.945

molecular dipole:
                 x           y           z       tot (Debye)
 q only:       -0.603       0.057       0.594
   full:       -0.856      -0.020       0.551       2.588
molecular quadrupole (traceless):
                xx          xy          yy          xz          yz          zz
 q only:       -3.192       2.154       0.584       6.055      -2.282       2.608
  q+dip:       -4.711       1.871       0.567       8.850      -1.662       4.144
   full:       -5.298       1.474       1.545       9.435      -1.270       3.753


           -------------------------------------------------
          | TOTAL ENERGY              -20.839365735640 Eh   |
          | GRADIENT NORM               0.029397078161 Eh/α |
          | HOMO-LUMO GAP               0.366557843276 eV   |
           -------------------------------------------------

------------------------------------------------------------------------
 * finished run on 2021/06/02 at 10:00:08.362     
------------------------------------------------------------------------
 total:
 * wall-time:     0 d,  0 h,  0 min,  0.016 sec
 *  cpu-time:     0 d,  0 h,  0 min,  0.016 sec
 * ratio c/w:     0.987 speedup
 SCF:
 * wall-time:     0 d,  0 h,  0 min,  0.008 sec
 *  cpu-time:     0 d,  0 h,  0 min,  0.008 sec
 * ratio c/w:     1.000 speedup

