      -----------------------------------------------------------      
     |                   =====================                   |     
     |                           x T B                           |     
     |                   =====================                   |     
     |                         S. Grimme                         |     
     |          Mulliken Center for Theoretical Chemistry        |     
     |                    University of Bonn                     |     
     |                 Version 6.1.4 (SAW190525)                 |     
      -----------------------------------------------------------      

   This program is distributed in the hope that it will be useful,
   but WITHOUT ANY WARRANTY; without even the implied warranty of
   MERCHANTABILITY or FITNESS FOR A PARTICULAR PURPOSE.
   
   FOR NON-COMMERCIAL, ACADEMIA USE ONLY.
   
   Cite this work as:
   S. Grimme, C. Bannwarth, P. Shushkov, J. Comput. Theory Chem., 2017,
   13, 1989-2009. DOI: 10.1021/acs.jctc.7b00118
   C. Bannwarth, S. Ehlert and S. Grimme., J. Comput. Theory Chem., 2019,
   just accepted. DOI: 10.1021/acs.jctc.8b01176
   
   for sTDA-xTB:
   S. Grimme and C. Bannwarth, J. Chem. Phys., 2016, 145, 054103.
   DOI: 10.1063/1.4959605
   
   in the mass-spec context:
   V. Asgeirsson, C. Bauer and S. Grimme, Chem. Sci., 2017, 8, 4879.
   DOI: 10.1039/c7sc00601b
   
   for metadynamics refer to:
   S. Grimme, J. Chem. Theory Comput. Article ASAP, 2019,
   DOI: 10.1021/acs.jctc.9b00143
   
   with help from (in alphabetical order)
   C. Bannwarth, F. Bohle, G. Brandenburg, E. Caldeweyher, M. Checinski,
   S. Dohm, S. Ehlert, S. Ehrlich, F. März, H. Neugebauer, J. Pisarek,
   P. Pracht, P. Shushkov, and S. Spicher.
   
 * started run on 2021/06/02 at 10:00:07.097     

           -------------------------------------------------
          |                Calculation Setup                |
           -------------------------------------------------

          program call               : /groups/kemi/koerstz/opt/xtb/6.1/bin/xtb 37.xyz --gfn2 --acc 0.2 --chrg 0
          hostname                   : node305
          coordinate file            : 37.xyz
          omp threads                :                     1
          number of atoms            :                     9
          number of electrons        :                    36
          charge                     :                     0
          spin                       :                   0.0
          first test random number   :      0.30614540075062


########################################################################
# WARNING! Please study the warnings concerning your input carefully
#  - XTBPATH is not set, using XTBHOME instead
########################################################################

           ------------------------------------------------- 
          |                 G F N 2 - x T B                 |
          | Geometry, Frequencies, Noncovalent interactions |
          |            JCTC 2018 parametrisation            |
           ------------------------------------------------- 
             k(s)              :                1.8500
             k(p)              :                2.2300
             k(d)              :                2.2300
             k(f)              :                2.0000
             kEN (H0ij)        :               -2.0000
             D4 a1             :                0.5200
             D4 a2             :                5.0000
             D4 s6             :                1.0000
             D4 s8             :                2.7000
             D4 s9             :                5.0000
             alphaj            :                2.0000

  Z AO/shell   Hii/eV     exponent
  1     Wed Apr 25 08:07:45 CEST 2018   EN: 2.200 GM2: 0.406  GM3: 0.0800  RAES: 1.40
     1s    -10.707211    1.230000
  6     Wed Apr 25 08:07:45 CEST 2018   EN: 2.550 GM2: 0.538  GM3: 0.1500  RAES: 3.00
     2s    -13.970922    2.096432
     2p    -10.063292    1.800000
  7     Wed Apr 25 08:07:45 CEST 2018   EN: 3.040 GM2: 0.461  GM3:-0.0640  RAES: 1.90
     2s    -16.686243    2.339881
     2p    -12.523956    2.014332
  8     Wed Apr 25 08:07:45 CEST 2018   EN: 3.440 GM2: 0.452  GM3:-0.0517  RAES: 1.80
     2s    -20.229985    2.439742
     2p    -15.503117    2.137023


            Z     q(EN)     CN     RAES       Cart. coordinates
     1  N   5.0   -0.42    2.01    1.90    -0.69902     0.16172    -2.20012
     2  C   4.0    0.32    3.00    3.02    -0.79723    -1.33133    -0.30568
     3  N   5.0   -0.14    2.02    1.90    -2.87164    -2.57995     0.43772
     4  N   5.0   -0.15    1.01    1.90    -4.58492    -2.87641     1.72676
     5  O   6.0   -0.09    1.00    1.80     4.79814    -2.97670    -1.72728
     6  N   5.0   -0.16    2.00    1.90     3.56126    -2.76702     0.17401
     7  C   4.0    0.14    3.01    3.02     1.51410    -2.13347     1.16399
     8  H   1.0    0.33    1.00    1.43    -2.25465     0.22198    -3.33621
     9  H   1.0    0.18    1.00    1.43     1.28875    -2.37102     3.16413

           ------------------------------------------------- 
          |        Self-Consistent Charge Iterations        |
           ------------------------------------------------- 
q/qsh data taken from xtbrestart
CAMM data taken from xtbrestart

          ...................................................
          :                      SETUP                      :
          :.................................................:
          :  # basis functions                  30          :
          :  # atomic orbitals                  30          :
          :  # shells                           16          :
          :  # electrons                        36          :
          :  max. iterations                   250          :
          :  Hamiltonian                  GFN2-xTB          :
          :  restarted?                       true          :
          :  GBSA solvation                  false          :
          :  PC potential                    false          :
          :  electronic temp.          300.0000000     K    :
          :  accuracy                    0.2000000          :
          :  -> integral cutoff          0.3198970E+02      :
          :  -> integral neglect         0.2000000E-08      :
          :  -> SCF convergence          0.2000000E-06 Eh   :
          :  -> wf. convergence          0.2000000E-04 e    :
          :  Broyden damping             0.4000000          :
          ...................................................

 iter      E             dE          RMSdq      gap      omega  full diag
   1    -20.6621874 -0.206622E+02  0.731E+00    0.71       0.0  T
   2    -20.6226327  0.395547E-01  0.776E+00    1.92       1.0  T
   3    -20.9505970 -0.327964E+00  0.410E+00    1.08       1.0  T
   4    -20.7523422  0.198255E+00  0.496E+00    0.64       1.0  T
   5    -21.0764568 -0.324115E+00  0.110E+00    0.41       1.0  T
   6    -21.0843114 -0.785458E-02  0.429E-01    0.39       1.0  T
   7    -21.0839605  0.350850E-03  0.231E-01    0.36       1.0  T
   8    -21.0845063 -0.545807E-03  0.722E-02    0.36       1.0  T
   9    -21.0845212 -0.148738E-04  0.410E-02    0.36       1.0  T
  10    -21.0843816  0.139586E-03  0.108E-01    0.35       1.0  T
  11    -21.0843565  0.251006E-04  0.115E-01    0.36       1.0  T
  12    -21.0845082 -0.151721E-03  0.481E-02    0.36       1.0  T
  13    -21.0845330 -0.247897E-04  0.227E-02    0.36       1.5  T
  14    -21.0845399 -0.688724E-05  0.282E-03    0.36      11.8  T
  15    -21.0845400 -0.911397E-07  0.138E-03    0.36      24.2  T
  16    -21.0845400 -0.207732E-07  0.582E-04    0.36      57.3  T
  17    -21.0845400 -0.311414E-08  0.329E-04    0.36     101.3  T
  18    -21.0845400 -0.146639E-08  0.195E-05    0.36    1707.9  T
  19    -21.0845400 -0.411049E-11  0.556E-06    0.36    5999.5  T

   *** convergence criteria satisfied after 19 iterations ***

         #    Occupation            Energy/Eh            Energy/eV
      -------------------------------------------------------------
         1        2.0000           -0.7508514             -20.4317
       ...           ...                  ...                  ...
        12        2.0000           -0.5469723             -14.8839
        13        2.0000           -0.5226968             -14.2233
        14        2.0000           -0.5102386             -13.8843
        15        2.0000           -0.4897598             -13.3270
        16        2.0000           -0.4344835             -11.8229
        17        2.0000           -0.4302546             -11.7078
        18        1.9980           -0.3693752             -10.0512 (HOMO)
        19        0.0020           -0.3562429              -9.6939 (LUMO)
        20                         -0.3270164              -8.8986
        21                         -0.2783428              -7.5741
        22                         -0.2075617              -5.6480
        23                          0.0259474               0.7061
       ...                                ...                  ...
        30                          0.7830438              21.3077
      -------------------------------------------------------------
                  HL-Gap            0.0131323 Eh            0.3573 eV
             Fermi-level           -0.3628090 Eh           -9.8725 eV

 SCC (total)                   0 d,  0 h,  0 min,  0.009 sec
 SCC setup                      ...        0 min,  0.000 sec (  1.450%)
 Dispersion                     ...        0 min,  0.000 sec (  0.740%)
 integral evaluation            ...        0 min,  0.001 sec ( 12.086%)
 zeroth order Hamiltonian       ...        0 min,  0.000 sec (  0.440%)
 iterations                     ...        0 min,  0.005 sec ( 61.066%)
 molecular gradient             ...        0 min,  0.002 sec ( 21.866%)
 printout                       ...        0 min,  0.000 sec (  1.866%)

         :::::::::::::::::::::::::::::::::::::::::::::::::::::
         ::                     SUMMARY                     ::
         :::::::::::::::::::::::::::::::::::::::::::::::::::::
         :: total energy              -20.839715783825 Eh   ::
         :: gradient norm               0.024810530252 Eh/α ::
         :: HOMO-LUMO gap               0.357348493147 eV   ::
         ::.................................................::
         :: SCC energy                -21.084540042750 Eh   ::
         :: -> isotropic ES             0.025933420237 Eh   ::
         :: -> anisotropic ES           0.004594148468 Eh   ::
         :: -> anisotropic XC           0.026070679661 Eh   ::
         :: -> dispersion              -0.005664435605 Eh   ::
         :: repulsion energy            0.244819765292 Eh   ::
         :: add. restraining            0.000000000000 Eh   ::
         :::::::::::::::::::::::::::::::::::::::::::::::::::::

           -------------------------------------------------
          |                Property Printout                |
           -------------------------------------------------

    * Orbital Energies and Occupations

         #    Occupation            Energy/Eh            Energy/eV
      -------------------------------------------------------------
         1        2.0000           -0.7508514             -20.4317
       ...           ...                  ...                  ...
         6        2.0000           -0.6366383             -17.3238
         7        2.0000           -0.6076463             -16.5349
         8        2.0000           -0.5977773             -16.2663
         9        2.0000           -0.5958133             -16.2129
        10        2.0000           -0.5937240             -16.1561
        11        2.0000           -0.5724441             -15.5770
        12        2.0000           -0.5469723             -14.8839
        13        2.0000           -0.5226968             -14.2233
        14        2.0000           -0.5102386             -13.8843
        15        2.0000           -0.4897598             -13.3270
        16        2.0000           -0.4344835             -11.8229
        17        2.0000           -0.4302546             -11.7078
        18        1.9980           -0.3693752             -10.0512 (HOMO)
        19        0.0020           -0.3562429              -9.6939 (LUMO)
        20                         -0.3270164              -8.8986
        21                         -0.2783428              -7.5741
        22                         -0.2075617              -5.6480
        23                          0.0259474               0.7061
        24                          0.0768350               2.0908
        25                          0.0986817               2.6853
        26                          0.2084313               5.6717
        27                          0.2895045               7.8778
        28                          0.4930632              13.4169
        29                          0.7134950              19.4152
        30                          0.7830438              21.3077
      -------------------------------------------------------------
                  HL-Gap            0.0131323 Eh            0.3573 eV
             Fermi-level           -0.3628090 Eh           -9.8725 eV

   #   Z        covCN         q      C6AA      α(0)
   1   7 N      1.781    -0.297    28.519     7.909
   2   6 C      2.805     0.154    24.660     8.135
   3   7 N      1.910     0.112    19.948     6.622
   4   7 N      0.986    -0.107    22.968     6.892
   5   8 O      0.924    -0.261    19.071     5.857
   6   7 N      1.837     0.191    18.652     6.400
   7   6 C      2.827    -0.035    28.850     8.801
   8   1 H      0.860     0.165     1.304     1.789
   9   1 H      0.926     0.078     1.996     2.210

 Mol. C6AA /au·bohr⁶  :       1304.007201
 Mol. C8AA /au·bohr⁸  :      29804.809978
 Mol. α(0) /au        :         54.615126


Wiberg/Mayer (AO) data.
largest (>0.10) Wiberg bond orders for each atom
          total WBO             WBO to atom ...
     1  N   3.116        C    2 1.664    H    8 0.936    N    4 0.132    N    6 0.131    O    5 0.126
     2  C   3.939        N    1 1.664    N    3 1.135    C    7 0.902    N    4 0.135
     3  N   3.681        N    4 2.241    C    2 1.135
     4  N   2.940        N    3 2.241    N    6 0.193    O    5 0.176    C    2 0.135    N    1 0.132
     5  O   2.236        N    6 1.484    C    7 0.302    N    4 0.176    N    1 0.126
     6  N   3.641        C    7 1.688    O    5 1.484    N    4 0.193    N    1 0.131
     7  C   3.940        N    6 1.688    H    9 0.946    C    2 0.902    O    5 0.302
     8  H   0.973        N    1 0.936
     9  H   0.994        C    7 0.946

molecular dipole:
                 x           y           z       tot (Debye)
 q only:       -0.641      -0.060       0.613
   full:       -0.900      -0.150       0.577       2.744
molecular quadrupole (traceless):
                xx          xy          yy          xz          yz          zz
 q only:       -3.898       1.876       1.563       6.107      -2.229       2.334
  q+dip:       -5.606       1.662       1.904       8.995      -1.620       3.702
   full:       -6.289       1.350       2.944       9.665      -1.179       3.345


           -------------------------------------------------
          | TOTAL ENERGY              -20.839715783825 Eh   |
          | GRADIENT NORM               0.024810530252 Eh/α |
          | HOMO-LUMO GAP               0.357348493147 eV   |
           -------------------------------------------------

------------------------------------------------------------------------
 * finished run on 2021/06/02 at 10:00:07.115     
------------------------------------------------------------------------
 total:
 * wall-time:     0 d,  0 h,  0 min,  0.017 sec
 *  cpu-time:     0 d,  0 h,  0 min,  0.017 sec
 * ratio c/w:     0.989 speedup
 SCF:
 * wall-time:     0 d,  0 h,  0 min,  0.009 sec
 *  cpu-time:     0 d,  0 h,  0 min,  0.009 sec
 * ratio c/w:     1.000 speedup

