      -----------------------------------------------------------      
     |                   =====================                   |     
     |                           x T B                           |     
     |                   =====================                   |     
     |                         S. Grimme                         |     
     |          Mulliken Center for Theoretical Chemistry        |     
     |                    University of Bonn                     |     
     |                 Version 6.1.4 (SAW190525)                 |     
      -----------------------------------------------------------      

   This program is distributed in the hope that it will be useful,
   but WITHOUT ANY WARRANTY; without even the implied warranty of
   MERCHANTABILITY or FITNESS FOR A PARTICULAR PURPOSE.
   
   FOR NON-COMMERCIAL, ACADEMIA USE ONLY.
   
   Cite this work as:
   S. Grimme, C. Bannwarth, P. Shushkov, J. Comput. Theory Chem., 2017,
   13, 1989-2009. DOI: 10.1021/acs.jctc.7b00118
   C. Bannwarth, S. Ehlert and S. Grimme., J. Comput. Theory Chem., 2019,
   just accepted. DOI: 10.1021/acs.jctc.8b01176
   
   for sTDA-xTB:
   S. Grimme and C. Bannwarth, J. Chem. Phys., 2016, 145, 054103.
   DOI: 10.1063/1.4959605
   
   in the mass-spec context:
   V. Asgeirsson, C. Bauer and S. Grimme, Chem. Sci., 2017, 8, 4879.
   DOI: 10.1039/c7sc00601b
   
   for metadynamics refer to:
   S. Grimme, J. Chem. Theory Comput. Article ASAP, 2019,
   DOI: 10.1021/acs.jctc.9b00143
   
   with help from (in alphabetical order)
   C. Bannwarth, F. Bohle, G. Brandenburg, E. Caldeweyher, M. Checinski,
   S. Dohm, S. Ehlert, S. Ehrlich, F. März, H. Neugebauer, J. Pisarek,
   P. Pracht, P. Shushkov, and S. Spicher.
   
 * started run on 2021/06/02 at 10:00:07.650     

           -------------------------------------------------
          |                Calculation Setup                |
           -------------------------------------------------

          program call               : /groups/kemi/koerstz/opt/xtb/6.1/bin/xtb 38.xyz --gfn2 --acc 0.2 --chrg 0
          hostname                   : node305
          coordinate file            : 38.xyz
          omp threads                :                     1
          number of atoms            :                     9
          number of electrons        :                    36
          charge                     :                     0
          spin                       :                   0.0
          first test random number   :      0.71878635096216


########################################################################
# WARNING! Please study the warnings concerning your input carefully
#  - XTBPATH is not set, using XTBHOME instead
########################################################################

           ------------------------------------------------- 
          |                 G F N 2 - x T B                 |
          | Geometry, Frequencies, Noncovalent interactions |
          |            JCTC 2018 parametrisation            |
           ------------------------------------------------- 
             k(s)              :                1.8500
             k(p)              :                2.2300
             k(d)              :                2.2300
             k(f)              :                2.0000
             kEN (H0ij)        :               -2.0000
             D4 a1             :                0.5200
             D4 a2             :                5.0000
             D4 s6             :                1.0000
             D4 s8             :                2.7000
             D4 s9             :                5.0000
             alphaj            :                2.0000

  Z AO/shell   Hii/eV     exponent
  1     Wed Apr 25 08:07:45 CEST 2018   EN: 2.200 GM2: 0.406  GM3: 0.0800  RAES: 1.40
     1s    -10.707211    1.230000
  6     Wed Apr 25 08:07:45 CEST 2018   EN: 2.550 GM2: 0.538  GM3: 0.1500  RAES: 3.00
     2s    -13.970922    2.096432
     2p    -10.063292    1.800000
  7     Wed Apr 25 08:07:45 CEST 2018   EN: 3.040 GM2: 0.461  GM3:-0.0640  RAES: 1.90
     2s    -16.686243    2.339881
     2p    -12.523956    2.014332
  8     Wed Apr 25 08:07:45 CEST 2018   EN: 3.440 GM2: 0.452  GM3:-0.0517  RAES: 1.80
     2s    -20.229985    2.439742
     2p    -15.503117    2.137023


            Z     q(EN)     CN     RAES       Cart. coordinates
     1  N   5.0   -0.42    2.01    1.90    -0.66620     0.06917    -2.26090
     2  C   4.0    0.32    3.00    3.02    -0.77883    -1.32234    -0.28936
     3  N   5.0   -0.15    2.02    1.90    -2.88982    -2.42470     0.53196
     4  N   5.0   -0.15    1.00    1.90    -4.61978    -2.77626     1.77302
     5  O   6.0   -0.09    1.00    1.80     4.86819    -2.71829    -1.71728
     6  N   5.0   -0.16    2.00    1.90     3.56201    -2.76009     0.15961
     7  C   4.0    0.14    3.01    3.02     1.50200    -2.19418     1.15043
     8  H   1.0    0.32    1.00    1.43    -2.25988     0.13068    -3.36748
     9  H   1.0    0.18    1.00    1.43     1.23709    -2.65619     3.11732

           ------------------------------------------------- 
          |        Self-Consistent Charge Iterations        |
           ------------------------------------------------- 
q/qsh data taken from xtbrestart
CAMM data taken from xtbrestart

          ...................................................
          :                      SETUP                      :
          :.................................................:
          :  # basis functions                  30          :
          :  # atomic orbitals                  30          :
          :  # shells                           16          :
          :  # electrons                        36          :
          :  max. iterations                   250          :
          :  Hamiltonian                  GFN2-xTB          :
          :  restarted?                       true          :
          :  GBSA solvation                  false          :
          :  PC potential                    false          :
          :  electronic temp.          300.0000000     K    :
          :  accuracy                    0.2000000          :
          :  -> integral cutoff          0.3198970E+02      :
          :  -> integral neglect         0.2000000E-08      :
          :  -> SCF convergence          0.2000000E-06 Eh   :
          :  -> wf. convergence          0.2000000E-04 e    :
          :  Broyden damping             0.4000000          :
          ...................................................

 iter      E             dE          RMSdq      gap      omega  full diag
   1    -21.0657431 -0.210657E+02  0.312E+00    0.49       0.0  T
   2    -20.7934079  0.272335E+00  0.467E+00    0.55       1.0  T
   3    -20.9536706 -0.160263E+00  0.349E+00    0.89       1.0  T
   4    -21.0732626 -0.119592E+00  0.138E+00    0.44       1.0  T
   5    -21.0822601 -0.899748E-02  0.746E-01    0.39       1.0  T
   6    -21.0840616 -0.180160E-02  0.603E-01    0.38       1.0  T
   7    -21.0843125 -0.250804E-03  0.463E-01    0.36       1.0  T
   8    -21.0861740 -0.186157E-02  0.142E-01    0.32       1.0  T
   9    -21.0863022 -0.128177E-03  0.498E-02    0.32       1.0  T
  10    -21.0863125 -0.102572E-04  0.966E-03    0.31       3.4  T
  11    -21.0863110  0.143062E-05  0.130E-02    0.31       2.6  T
  12    -21.0863120 -0.944945E-06  0.965E-03    0.31       3.5  T
  13    -21.0863132 -0.123849E-05  0.119E-03    0.31      28.0  T
  14    -21.0863132 -0.631256E-08  0.893E-04    0.31      37.3  T
  15    -21.0863132 -0.491841E-08  0.666E-04    0.31      50.0  T
  16    -21.0863132 -0.551090E-08  0.177E-04    0.31     188.0  T
  17    -21.0863132 -0.406168E-09  0.277E-05    0.31    1201.5  T

   *** convergence criteria satisfied after 17 iterations ***

         #    Occupation            Energy/Eh            Energy/eV
      -------------------------------------------------------------
         1        2.0000           -0.7480543             -20.3556
       ...           ...                  ...                  ...
        12        2.0000           -0.5453884             -14.8408
        13        2.0000           -0.5231017             -14.2343
        14        2.0000           -0.5112045             -13.9106
        15        2.0000           -0.4918980             -13.3852
        16        2.0000           -0.4337563             -11.8031
        17        2.0000           -0.4271690             -11.6239
        18        1.9954           -0.3687621             -10.0345 (HOMO)
        19        0.0046           -0.3572111              -9.7202 (LUMO)
        20                         -0.3282977              -8.9334
        21                         -0.2779527              -7.5635
        22                         -0.1977658              -5.3815
        23                          0.0261169               0.7107
       ...                                ...                  ...
        30                          0.8223212              22.3765
      -------------------------------------------------------------
                  HL-Gap            0.0115509 Eh            0.3143 eV
             Fermi-level           -0.3629866 Eh           -9.8774 eV

 SCC (total)                   0 d,  0 h,  0 min,  0.008 sec
 SCC setup                      ...        0 min,  0.000 sec (  1.470%)
 Dispersion                     ...        0 min,  0.000 sec (  0.708%)
 integral evaluation            ...        0 min,  0.001 sec ( 13.028%)
 zeroth order Hamiltonian       ...        0 min,  0.000 sec (  0.387%)
 iterations                     ...        0 min,  0.005 sec ( 58.766%)
 molecular gradient             ...        0 min,  0.002 sec ( 23.317%)
 printout                       ...        0 min,  0.000 sec (  1.888%)

         :::::::::::::::::::::::::::::::::::::::::::::::::::::
         ::                     SUMMARY                     ::
         :::::::::::::::::::::::::::::::::::::::::::::::::::::
         :: total energy              -20.839273225629 Eh   ::
         :: gradient norm               0.030878772782 Eh/α ::
         :: HOMO-LUMO gap               0.314317288357 eV   ::
         ::.................................................::
         :: SCC energy                -21.086313227573 Eh   ::
         :: -> isotropic ES             0.026404379057 Eh   ::
         :: -> anisotropic ES           0.004676817875 Eh   ::
         :: -> anisotropic XC           0.026526127915 Eh   ::
         :: -> dispersion              -0.005670755996 Eh   ::
         :: repulsion energy            0.247036068817 Eh   ::
         :: add. restraining            0.000000000000 Eh   ::
         :::::::::::::::::::::::::::::::::::::::::::::::::::::

           -------------------------------------------------
          |                Property Printout                |
           -------------------------------------------------

    * Orbital Energies and Occupations

         #    Occupation            Energy/Eh            Energy/eV
      -------------------------------------------------------------
         1        2.0000           -0.7480543             -20.3556
       ...           ...                  ...                  ...
         6        2.0000           -0.6372224             -17.3397
         7        2.0000           -0.6105388             -16.6136
         8        2.0000           -0.5975243             -16.2595
         9        2.0000           -0.5941291             -16.1671
        10        2.0000           -0.5933610             -16.1462
        11        2.0000           -0.5717558             -15.5583
        12        2.0000           -0.5453884             -14.8408
        13        2.0000           -0.5231017             -14.2343
        14        2.0000           -0.5112045             -13.9106
        15        2.0000           -0.4918980             -13.3852
        16        2.0000           -0.4337563             -11.8031
        17        2.0000           -0.4271690             -11.6239
        18        1.9954           -0.3687621             -10.0345 (HOMO)
        19        0.0046           -0.3572111              -9.7202 (LUMO)
        20                         -0.3282977              -8.9334
        21                         -0.2779527              -7.5635
        22                         -0.1977658              -5.3815
        23                          0.0261169               0.7107
        24                          0.0682172               1.8563
        25                          0.0954102               2.5962
        26                          0.2042636               5.5583
        27                          0.2871717               7.8143
        28                          0.4931791              13.4201
        29                          0.7174649              19.5232
        30                          0.8223212              22.3765
      -------------------------------------------------------------
                  HL-Gap            0.0115509 Eh            0.3143 eV
             Fermi-level           -0.3629866 Eh           -9.8774 eV

   #   Z        covCN         q      C6AA      α(0)
   1   7 N      1.783    -0.301    28.623     7.923
   2   6 C      2.805     0.152    24.685     8.140
   3   7 N      1.914     0.121    19.798     6.597
   4   7 N      0.985    -0.102    22.879     6.879
   5   8 O      0.924    -0.261    19.058     5.855
   6   7 N      1.837     0.187    18.720     6.412
   7   6 C      2.830    -0.032    28.786     8.792
   8   1 H      0.859     0.160     1.332     1.808
   9   1 H      0.926     0.075     2.027     2.226

 Mol. C6AA /au·bohr⁶  :       1304.692864
 Mol. C8AA /au·bohr⁸  :      29809.838332
 Mol. α(0) /au        :         54.632401


Wiberg/Mayer (AO) data.
largest (>0.10) Wiberg bond orders for each atom
          total WBO             WBO to atom ...
     1  N   3.097        C    2 1.633    H    8 0.939    N    6 0.136    O    5 0.135    N    4 0.128
     2  C   3.938        N    1 1.633    N    3 1.148    C    7 0.919    N    4 0.140
     3  N   3.701        N    4 2.251    C    2 1.148
     4  N   2.771        N    3 2.251    N    6 0.190    C    2 0.140    N    1 0.128
     5  O   2.059        N    6 1.484    C    7 0.291    N    1 0.135
     6  N   3.630        C    7 1.679    O    5 1.484    N    4 0.190    N    1 0.136
     7  C   3.941        N    6 1.679    H    9 0.947    C    2 0.919    O    5 0.291
     8  H   0.974        N    1 0.939
     9  H   0.994        C    7 0.947

molecular dipole:
                 x           y           z       tot (Debye)
 q only:       -0.714      -0.148       0.654
   full:       -0.988      -0.239       0.640       3.053
molecular quadrupole (traceless):
                xx          xy          yy          xz          yz          zz
 q only:       -4.159       1.685       2.179       5.964      -2.189       1.980
  q+dip:       -5.908       1.470       2.710       8.909      -1.599       3.199
   full:       -6.662       1.159       3.786       9.630      -1.060       2.876


           -------------------------------------------------
          | TOTAL ENERGY              -20.839273225629 Eh   |
          | GRADIENT NORM               0.030878772782 Eh/α |
          | HOMO-LUMO GAP               0.314317288357 eV   |
           -------------------------------------------------

------------------------------------------------------------------------
 * finished run on 2021/06/02 at 10:00:07.667     
------------------------------------------------------------------------
 total:
 * wall-time:     0 d,  0 h,  0 min,  0.016 sec
 *  cpu-time:     0 d,  0 h,  0 min,  0.016 sec
 * ratio c/w:     0.987 speedup
 SCF:
 * wall-time:     0 d,  0 h,  0 min,  0.008 sec
 *  cpu-time:     0 d,  0 h,  0 min,  0.008 sec
 * ratio c/w:     1.000 speedup

