      -----------------------------------------------------------      
     |                   =====================                   |     
     |                           x T B                           |     
     |                   =====================                   |     
     |                         S. Grimme                         |     
     |          Mulliken Center for Theoretical Chemistry        |     
     |                    University of Bonn                     |     
     |                 Version 6.1.4 (SAW190525)                 |     
      -----------------------------------------------------------      

   This program is distributed in the hope that it will be useful,
   but WITHOUT ANY WARRANTY; without even the implied warranty of
   MERCHANTABILITY or FITNESS FOR A PARTICULAR PURPOSE.
   
   FOR NON-COMMERCIAL, ACADEMIA USE ONLY.
   
   Cite this work as:
   S. Grimme, C. Bannwarth, P. Shushkov, J. Comput. Theory Chem., 2017,
   13, 1989-2009. DOI: 10.1021/acs.jctc.7b00118
   C. Bannwarth, S. Ehlert and S. Grimme., J. Comput. Theory Chem., 2019,
   just accepted. DOI: 10.1021/acs.jctc.8b01176
   
   for sTDA-xTB:
   S. Grimme and C. Bannwarth, J. Chem. Phys., 2016, 145, 054103.
   DOI: 10.1063/1.4959605
   
   in the mass-spec context:
   V. Asgeirsson, C. Bauer and S. Grimme, Chem. Sci., 2017, 8, 4879.
   DOI: 10.1039/c7sc00601b
   
   for metadynamics refer to:
   S. Grimme, J. Chem. Theory Comput. Article ASAP, 2019,
   DOI: 10.1021/acs.jctc.9b00143
   
   with help from (in alphabetical order)
   C. Bannwarth, F. Bohle, G. Brandenburg, E. Caldeweyher, M. Checinski,
   S. Dohm, S. Ehlert, S. Ehrlich, F. März, H. Neugebauer, J. Pisarek,
   P. Pracht, P. Shushkov, and S. Spicher.
   
 * started run on 2021/06/02 at 10:00:07.316     

           -------------------------------------------------
          |                Calculation Setup                |
           -------------------------------------------------

          program call               : /groups/kemi/koerstz/opt/xtb/6.1/bin/xtb 4.xyz --gfn2 --acc 0.2 --chrg 0
          hostname                   : node305
          coordinate file            : 4.xyz
          omp threads                :                     1
          number of atoms            :                     9
          number of electrons        :                    36
          charge                     :                     0
          spin                       :                   0.0
          first test random number   :      0.22664571845200


########################################################################
# WARNING! Please study the warnings concerning your input carefully
#  - XTBPATH is not set, using XTBHOME instead
########################################################################

           ------------------------------------------------- 
          |                 G F N 2 - x T B                 |
          | Geometry, Frequencies, Noncovalent interactions |
          |            JCTC 2018 parametrisation            |
           ------------------------------------------------- 
             k(s)              :                1.8500
             k(p)              :                2.2300
             k(d)              :                2.2300
             k(f)              :                2.0000
             kEN (H0ij)        :               -2.0000
             D4 a1             :                0.5200
             D4 a2             :                5.0000
             D4 s6             :                1.0000
             D4 s8             :                2.7000
             D4 s9             :                5.0000
             alphaj            :                2.0000

  Z AO/shell   Hii/eV     exponent
  1     Wed Apr 25 08:07:45 CEST 2018   EN: 2.200 GM2: 0.406  GM3: 0.0800  RAES: 1.40
     1s    -10.707211    1.230000
  6     Wed Apr 25 08:07:45 CEST 2018   EN: 2.550 GM2: 0.538  GM3: 0.1500  RAES: 3.00
     2s    -13.970922    2.096432
     2p    -10.063292    1.800000
  7     Wed Apr 25 08:07:45 CEST 2018   EN: 3.040 GM2: 0.461  GM3:-0.0640  RAES: 1.90
     2s    -16.686243    2.339881
     2p    -12.523956    2.014332
  8     Wed Apr 25 08:07:45 CEST 2018   EN: 3.440 GM2: 0.452  GM3:-0.0517  RAES: 1.80
     2s    -20.229985    2.439742
     2p    -15.503117    2.137023


            Z     q(EN)     CN     RAES       Cart. coordinates
     1  N   5.0   -0.46    2.01    1.90    -1.39070     1.02577    -1.05165
     2  C   4.0    0.30    3.03    3.02    -0.32016    -0.96037    -0.28935
     3  N   5.0   -0.05    2.41    1.90    -1.32291    -3.43246    -0.81175
     4  N   5.0   -0.18    1.00    1.90    -3.09404    -4.40919    -1.53596
     5  O   6.0   -0.04    1.42    1.80     1.28571    -5.25538     0.55190
     6  N   5.0   -0.19    2.03    1.90     2.71472    -3.53967     1.42486
     7  C   4.0    0.12    3.04    3.02     2.00651    -1.22833     1.07889
     8  H   1.0    0.33    1.00    1.43    -3.03424     0.81632    -2.02289
     9  H   1.0    0.17    1.00    1.43     3.10989     0.33112     1.75324

           ------------------------------------------------- 
          |        Self-Consistent Charge Iterations        |
           ------------------------------------------------- 
q/qsh data taken from xtbrestart
CAMM data taken from xtbrestart

          ...................................................
          :                      SETUP                      :
          :.................................................:
          :  # basis functions                  30          :
          :  # atomic orbitals                  30          :
          :  # shells                           16          :
          :  # electrons                        36          :
          :  max. iterations                   250          :
          :  Hamiltonian                  GFN2-xTB          :
          :  restarted?                       true          :
          :  GBSA solvation                  false          :
          :  PC potential                    false          :
          :  electronic temp.          300.0000000     K    :
          :  accuracy                    0.2000000          :
          :  -> integral cutoff          0.3198970E+02      :
          :  -> integral neglect         0.2000000E-08      :
          :  -> SCF convergence          0.2000000E-06 Eh   :
          :  -> wf. convergence          0.2000000E-04 e    :
          :  Broyden damping             0.4000000          :
          ...................................................

 iter      E             dE          RMSdq      gap      omega  full diag
   1    -21.0936422 -0.210936E+02  0.206E+00    0.80       0.0  T
   2    -21.0954213 -0.177913E-02  0.111E+00    0.86       1.0  T
   3    -21.0925612  0.286008E-02  0.709E-01    0.65       1.0  T
   4    -21.0967695 -0.420827E-02  0.151E-01    0.77       1.0  T
   5    -21.0968849 -0.115413E-03  0.709E-02    0.75       1.0  T
   6    -21.0968956 -0.106791E-04  0.143E-02    0.75       2.3  T
   7    -21.0968961 -0.566707E-06  0.722E-03    0.75       4.6  T
   8    -21.0968962 -0.936152E-08  0.242E-03    0.75      13.8  T
   9    -21.0968962 -0.276893E-07  0.909E-04    0.75      36.7  T
  10    -21.0968962 -0.252319E-08  0.428E-04    0.75      77.8  T
  11    -21.0968962 -0.307164E-09  0.136E-04    0.75     244.5  T
  12    -21.0968962 -0.106471E-09  0.417E-05    0.75     799.3  T

   *** convergence criteria satisfied after 12 iterations ***

         #    Occupation            Energy/Eh            Energy/eV
      -------------------------------------------------------------
         1        2.0000           -0.7573941             -20.6097
       ...           ...                  ...                  ...
        12        2.0000           -0.5403808             -14.7045
        13        2.0000           -0.5314671             -14.4620
        14        2.0000           -0.5022295             -13.6664
        15        2.0000           -0.4966088             -13.5134
        16        2.0000           -0.4556137             -12.3979
        17        2.0000           -0.4390944             -11.9484
        18        2.0000           -0.3977456             -10.8232 (HOMO)
        19        0.0000           -0.3701890             -10.0734 (LUMO)
        20                         -0.2950741              -8.0294
        21                         -0.2896084              -7.8806
        22                         -0.2001223              -5.4456
        23                         -0.0053088              -0.1445
       ...                                ...                  ...
        30                          0.7333849              19.9564
      -------------------------------------------------------------
                  HL-Gap            0.0275566 Eh            0.7499 eV
             Fermi-level           -0.3839673 Eh          -10.4483 eV

 SCC (total)                   0 d,  0 h,  0 min,  0.007 sec
 SCC setup                      ...        0 min,  0.000 sec (  1.771%)
 Dispersion                     ...        0 min,  0.000 sec (  0.807%)
 integral evaluation            ...        0 min,  0.001 sec ( 15.543%)
 zeroth order Hamiltonian       ...        0 min,  0.000 sec (  0.458%)
 iterations                     ...        0 min,  0.004 sec ( 50.860%)
 molecular gradient             ...        0 min,  0.002 sec ( 27.803%)
 printout                       ...        0 min,  0.000 sec (  2.258%)

         :::::::::::::::::::::::::::::::::::::::::::::::::::::
         ::                     SUMMARY                     ::
         :::::::::::::::::::::::::::::::::::::::::::::::::::::
         :: total energy              -20.866621529973 Eh   ::
         :: gradient norm               0.014505473268 Eh/α ::
         :: HOMO-LUMO gap               0.749852860972 eV   ::
         ::.................................................::
         :: SCC energy                -21.096896189746 Eh   ::
         :: -> isotropic ES             0.028001202729 Eh   ::
         :: -> anisotropic ES           0.003323485598 Eh   ::
         :: -> anisotropic XC           0.030021330493 Eh   ::
         :: -> dispersion              -0.006055336469 Eh   ::
         :: repulsion energy            0.230271476421 Eh   ::
         :: add. restraining            0.000000000000 Eh   ::
         :::::::::::::::::::::::::::::::::::::::::::::::::::::

           -------------------------------------------------
          |                Property Printout                |
           -------------------------------------------------

    * Orbital Energies and Occupations

         #    Occupation            Energy/Eh            Energy/eV
      -------------------------------------------------------------
         1        2.0000           -0.7573941             -20.6097
       ...           ...                  ...                  ...
         6        2.0000           -0.6523068             -17.7502
         7        2.0000           -0.6259894             -17.0340
         8        2.0000           -0.6150352             -16.7360
         9        2.0000           -0.5835992             -15.8805
        10        2.0000           -0.5781127             -15.7312
        11        2.0000           -0.5536794             -15.0664
        12        2.0000           -0.5403808             -14.7045
        13        2.0000           -0.5314671             -14.4620
        14        2.0000           -0.5022295             -13.6664
        15        2.0000           -0.4966088             -13.5134
        16        2.0000           -0.4556137             -12.3979
        17        2.0000           -0.4390944             -11.9484
        18        2.0000           -0.3977456             -10.8232 (HOMO)
        19        0.0000           -0.3701890             -10.0734 (LUMO)
        20                         -0.2950741              -8.0294
        21                         -0.2896084              -7.8806
        22                         -0.2001223              -5.4456
        23                         -0.0053088              -0.1445
        24                          0.0519810               1.4145
        25                          0.0895807               2.4376
        26                          0.2186434               5.9496
        27                          0.3144262               8.5560
        28                          0.4043779              11.0037
        29                          0.5421183              14.7518
        30                          0.7333849              19.9564
      -------------------------------------------------------------
                  HL-Gap            0.0275566 Eh            0.7499 eV
             Fermi-level           -0.3839673 Eh          -10.4483 eV

   #   Z        covCN         q      C6AA      α(0)
   1   7 N      1.778    -0.273    27.911     7.824
   2   6 C      2.828     0.164    24.460     8.104
   3   7 N      2.272     0.215    17.945     6.288
   4   7 N      0.985    -0.126    23.349     6.950
   5   8 O      1.306    -0.276    19.024     5.865
   6   7 N      1.860     0.036    21.289     6.839
   7   6 C      2.855    -0.002    28.065     8.683
   8   1 H      0.860     0.178     1.228     1.736
   9   1 H      0.926     0.084     1.933     2.174

 Mol. C6AA /au·bohr⁶  :       1296.235145
 Mol. C8AA /au·bohr⁸  :      29632.196275
 Mol. α(0) /au        :         54.463132


Wiberg/Mayer (AO) data.
largest (>0.10) Wiberg bond orders for each atom
          total WBO             WBO to atom ...
     1  N   3.106        C    2 1.779    H    8 0.936    N    4 0.122
     2  C   3.952        N    1 1.779    C    7 1.127    N    3 0.928
     3  N   3.780        N    4 2.314    C    2 0.928    O    5 0.363
     4  N   2.840        N    3 2.314    O    5 0.265    N    1 0.122
     5  O   2.267        N    6 1.321    N    3 0.363    N    4 0.265    C    7 0.178
     6  N   3.225        C    7 1.616    O    5 1.321
     7  C   3.967        N    6 1.616    C    2 1.127    H    9 0.959    O    5 0.178
     8  H   0.968        N    1 0.936
     9  H   0.993        C    7 0.959

molecular dipole:
                 x           y           z       tot (Debye)
 q only:       -0.104       0.877      -0.055
   full:       -0.263       0.881      -0.155       2.371
molecular quadrupole (traceless):
                xx          xy          yy          xz          yz          zz
 q only:        4.197       1.307      -7.815       1.109       0.697       3.618
  q+dip:        4.720       1.295     -10.170       0.500       0.915       5.450
   full:        4.237       1.078     -11.068      -0.885       0.911       6.831


           -------------------------------------------------
          | TOTAL ENERGY              -20.866621529973 Eh   |
          | GRADIENT NORM               0.014505473268 Eh/α |
          | HOMO-LUMO GAP               0.749852860972 eV   |
           -------------------------------------------------

------------------------------------------------------------------------
 * finished run on 2021/06/02 at 10:00:07.332     
------------------------------------------------------------------------
 total:
 * wall-time:     0 d,  0 h,  0 min,  0.016 sec
 *  cpu-time:     0 d,  0 h,  0 min,  0.015 sec
 * ratio c/w:     0.984 speedup
 SCF:
 * wall-time:     0 d,  0 h,  0 min,  0.008 sec
 *  cpu-time:     0 d,  0 h,  0 min,  0.008 sec
 * ratio c/w:     0.999 speedup

