      -----------------------------------------------------------      
     |                   =====================                   |     
     |                           x T B                           |     
     |                   =====================                   |     
     |                         S. Grimme                         |     
     |          Mulliken Center for Theoretical Chemistry        |     
     |                    University of Bonn                     |     
     |                 Version 6.1.4 (SAW190525)                 |     
      -----------------------------------------------------------      

   This program is distributed in the hope that it will be useful,
   but WITHOUT ANY WARRANTY; without even the implied warranty of
   MERCHANTABILITY or FITNESS FOR A PARTICULAR PURPOSE.
   
   FOR NON-COMMERCIAL, ACADEMIA USE ONLY.
   
   Cite this work as:
   S. Grimme, C. Bannwarth, P. Shushkov, J. Comput. Theory Chem., 2017,
   13, 1989-2009. DOI: 10.1021/acs.jctc.7b00118
   C. Bannwarth, S. Ehlert and S. Grimme., J. Comput. Theory Chem., 2019,
   just accepted. DOI: 10.1021/acs.jctc.8b01176
   
   for sTDA-xTB:
   S. Grimme and C. Bannwarth, J. Chem. Phys., 2016, 145, 054103.
   DOI: 10.1063/1.4959605
   
   in the mass-spec context:
   V. Asgeirsson, C. Bauer and S. Grimme, Chem. Sci., 2017, 8, 4879.
   DOI: 10.1039/c7sc00601b
   
   for metadynamics refer to:
   S. Grimme, J. Chem. Theory Comput. Article ASAP, 2019,
   DOI: 10.1021/acs.jctc.9b00143
   
   with help from (in alphabetical order)
   C. Bannwarth, F. Bohle, G. Brandenburg, E. Caldeweyher, M. Checinski,
   S. Dohm, S. Ehlert, S. Ehrlich, F. März, H. Neugebauer, J. Pisarek,
   P. Pracht, P. Shushkov, and S. Spicher.
   
 * started run on 2021/06/02 at 10:00:08.303     

           -------------------------------------------------
          |                Calculation Setup                |
           -------------------------------------------------

          program call               : /groups/kemi/koerstz/opt/xtb/6.1/bin/xtb 40.xyz --gfn2 --acc 0.2 --chrg 0
          hostname                   : node305
          coordinate file            : 40.xyz
          omp threads                :                     1
          number of atoms            :                     9
          number of electrons        :                    36
          charge                     :                     0
          spin                       :                   0.0
          first test random number   :      0.43321320266608


########################################################################
# WARNING! Please study the warnings concerning your input carefully
#  - XTBPATH is not set, using XTBHOME instead
########################################################################

           ------------------------------------------------- 
          |                 G F N 2 - x T B                 |
          | Geometry, Frequencies, Noncovalent interactions |
          |            JCTC 2018 parametrisation            |
           ------------------------------------------------- 
             k(s)              :                1.8500
             k(p)              :                2.2300
             k(d)              :                2.2300
             k(f)              :                2.0000
             kEN (H0ij)        :               -2.0000
             D4 a1             :                0.5200
             D4 a2             :                5.0000
             D4 s6             :                1.0000
             D4 s8             :                2.7000
             D4 s9             :                5.0000
             alphaj            :                2.0000

  Z AO/shell   Hii/eV     exponent
  1     Wed Apr 25 08:07:45 CEST 2018   EN: 2.200 GM2: 0.406  GM3: 0.0800  RAES: 1.40
     1s    -10.707211    1.230000
  6     Wed Apr 25 08:07:45 CEST 2018   EN: 2.550 GM2: 0.538  GM3: 0.1500  RAES: 3.00
     2s    -13.970922    2.096432
     2p    -10.063292    1.800000
  7     Wed Apr 25 08:07:45 CEST 2018   EN: 3.040 GM2: 0.461  GM3:-0.0640  RAES: 1.90
     2s    -16.686243    2.339881
     2p    -12.523956    2.014332
  8     Wed Apr 25 08:07:45 CEST 2018   EN: 3.440 GM2: 0.452  GM3:-0.0517  RAES: 1.80
     2s    -20.229985    2.439742
     2p    -15.503117    2.137023


            Z     q(EN)     CN     RAES       Cart. coordinates
     1  N   5.0   -0.41    2.01    1.90    -0.61196    -0.11580    -2.34520
     2  C   4.0    0.32    3.01    3.02    -0.77977    -1.41401    -0.31571
     3  N   5.0   -0.15    2.02    1.90    -3.01536    -2.33487     0.47947
     4  N   5.0   -0.16    1.00    1.90    -4.60839    -2.43431     1.97526
     5  O   6.0   -0.09    1.00    1.80     5.06331    -2.25504    -1.54879
     6  N   5.0   -0.16    2.00    1.90     3.61361    -2.62804     0.16490
     7  C   4.0    0.14    3.01    3.02     1.45525    -2.37646     1.11373
     8  H   1.0    0.32    1.00    1.43    -2.26976     0.04414    -3.36738
     9  H   1.0    0.18    1.00    1.43     1.10785    -3.13782     2.94103

           ------------------------------------------------- 
          |        Self-Consistent Charge Iterations        |
           ------------------------------------------------- 
q/qsh data taken from xtbrestart
CAMM data taken from xtbrestart

          ...................................................
          :                      SETUP                      :
          :.................................................:
          :  # basis functions                  30          :
          :  # atomic orbitals                  30          :
          :  # shells                           16          :
          :  # electrons                        36          :
          :  max. iterations                   250          :
          :  Hamiltonian                  GFN2-xTB          :
          :  restarted?                       true          :
          :  GBSA solvation                  false          :
          :  PC potential                    false          :
          :  electronic temp.          300.0000000     K    :
          :  accuracy                    0.2000000          :
          :  -> integral cutoff          0.3198970E+02      :
          :  -> integral neglect         0.2000000E-08      :
          :  -> SCF convergence          0.2000000E-06 Eh   :
          :  -> wf. convergence          0.2000000E-04 e    :
          :  Broyden damping             0.4000000          :
          ...................................................

 iter      E             dE          RMSdq      gap      omega  full diag
   1    -20.6603750 -0.206604E+02  0.770E+00    0.52       0.0  T
   2    -20.6018755  0.584995E-01  0.811E+00    1.72       1.0  T
   3    -20.9432356 -0.341360E+00  0.443E+00    1.01       1.0  T
   4    -20.6395266  0.303709E+00  0.545E+00    0.50       1.0  T
   5    -21.0547572 -0.415231E+00  0.142E+00    0.39       1.0  T
   6    -21.0755325 -0.207754E-01  0.561E-01    0.40       1.0  T
   7    -21.0370795  0.384530E-01  0.169E+00    0.35       1.0  T
   8    -21.0767540 -0.396745E-01  0.104E-01    0.35       1.0  T
   9    -21.0768448 -0.907903E-04  0.457E-02    0.35       1.0  T
  10    -21.0766427  0.202075E-03  0.125E-01    0.35       1.0  T
  11    -21.0768000 -0.157290E-03  0.665E-02    0.35       1.0  T
  12    -21.0768611 -0.610801E-04  0.111E-02    0.35       3.0  T
  13    -21.0768612 -0.964657E-07  0.103E-02    0.35       3.2  T
  14    -21.0768626 -0.145318E-05  0.148E-03    0.35      22.6  T
  15    -21.0768625  0.124214E-06  0.331E-03    0.35      10.1  T
  16    -21.0768627 -0.151987E-06  0.541E-04    0.35      61.7  T
  17    -21.0768627 -0.270617E-09  0.521E-04    0.35      64.0  T
  18    -21.0768627 -0.382229E-08  0.533E-05    0.35     625.1  T
  19    -21.0768627 -0.339995E-10  0.224E-05    0.35    1486.4  T

   *** convergence criteria satisfied after 19 iterations ***

         #    Occupation            Energy/Eh            Energy/eV
      -------------------------------------------------------------
         1        2.0000           -0.7522773             -20.4705
       ...           ...                  ...                  ...
        12        2.0000           -0.5478393             -14.9075
        13        2.0000           -0.5194339             -14.1345
        14        2.0000           -0.5102226             -13.8839
        15        2.0000           -0.4946644             -13.4605
        16        2.0000           -0.4347081             -11.8290
        17        2.0000           -0.4281546             -11.6507
        18        1.9978           -0.3695885             -10.0570 (HOMO)
        19        0.0022           -0.3566777              -9.7057 (LUMO)
        20                         -0.3298699              -8.9762
        21                         -0.2859663              -7.7815
        22                         -0.1968726              -5.3572
        23                          0.0285306               0.7764
       ...                                ...                  ...
        30                          0.7507980              20.4303
      -------------------------------------------------------------
                  HL-Gap            0.0129108 Eh            0.3513 eV
             Fermi-level           -0.3631331 Eh           -9.8814 eV

 SCC (total)                   0 d,  0 h,  0 min,  0.009 sec
 SCC setup                      ...        0 min,  0.000 sec (  1.500%)
 Dispersion                     ...        0 min,  0.000 sec (  0.648%)
 integral evaluation            ...        0 min,  0.001 sec ( 12.231%)
 zeroth order Hamiltonian       ...        0 min,  0.000 sec (  0.353%)
 iterations                     ...        0 min,  0.005 sec ( 61.749%)
 molecular gradient             ...        0 min,  0.002 sec ( 21.433%)
 printout                       ...        0 min,  0.000 sec (  1.674%)

         :::::::::::::::::::::::::::::::::::::::::::::::::::::
         ::                     SUMMARY                     ::
         :::::::::::::::::::::::::::::::::::::::::::::::::::::
         :: total energy              -20.839375035843 Eh   ::
         :: gradient norm               0.051954493022 Eh/α ::
         :: HOMO-LUMO gap               0.351320333793 eV   ::
         ::.................................................::
         :: SCC energy                -21.076862657095 Eh   ::
         :: -> isotropic ES             0.024943060606 Eh   ::
         :: -> anisotropic ES           0.004659319072 Eh   ::
         :: -> anisotropic XC           0.026307206770 Eh   ::
         :: -> dispersion              -0.005654753087 Eh   ::
         :: repulsion energy            0.237484655821 Eh   ::
         :: add. restraining            0.000000000000 Eh   ::
         :::::::::::::::::::::::::::::::::::::::::::::::::::::

           -------------------------------------------------
          |                Property Printout                |
           -------------------------------------------------

    * Orbital Energies and Occupations

         #    Occupation            Energy/Eh            Energy/eV
      -------------------------------------------------------------
         1        2.0000           -0.7522773             -20.4705
       ...           ...                  ...                  ...
         6        2.0000           -0.6368170             -17.3287
         7        2.0000           -0.6053952             -16.4736
         8        2.0000           -0.5983612             -16.2822
         9        2.0000           -0.5944541             -16.1759
        10        2.0000           -0.5940253             -16.1643
        11        2.0000           -0.5677656             -15.4497
        12        2.0000           -0.5478393             -14.9075
        13        2.0000           -0.5194339             -14.1345
        14        2.0000           -0.5102226             -13.8839
        15        2.0000           -0.4946644             -13.4605
        16        2.0000           -0.4347081             -11.8290
        17        2.0000           -0.4281546             -11.6507
        18        1.9978           -0.3695885             -10.0570 (HOMO)
        19        0.0022           -0.3566777              -9.7057 (LUMO)
        20                         -0.3298699              -8.9762
        21                         -0.2859663              -7.7815
        22                         -0.1968726              -5.3572
        23                          0.0285306               0.7764
        24                          0.0629638               1.7133
        25                          0.0989524               2.6926
        26                          0.2033851               5.5344
        27                          0.2947028               8.0193
        28                          0.4894924              13.3198
        29                          0.6929250              18.8554
        30                          0.7507980              20.4303
      -------------------------------------------------------------
                  HL-Gap            0.0129108 Eh            0.3513 eV
             Fermi-level           -0.3631331 Eh           -9.8814 eV

   #   Z        covCN         q      C6AA      α(0)
   1   7 N      1.785    -0.298    28.557     7.915
   2   6 C      2.806     0.157    24.583     8.123
   3   7 N      1.911     0.096    20.226     6.668
   4   7 N      0.985    -0.113    23.080     6.909
   5   8 O      0.924    -0.247    18.822     5.818
   6   7 N      1.837     0.195    18.596     6.391
   7   6 C      2.826    -0.035    28.866     8.804
   8   1 H      0.859     0.164     1.311     1.794
   9   1 H      0.927     0.081     1.966     2.193

 Mol. C6AA /au·bohr⁶  :       1303.823085
 Mol. C8AA /au·bohr⁸  :      29804.411386
 Mol. α(0) /au        :         54.613827


Wiberg/Mayer (AO) data.
largest (>0.10) Wiberg bond orders for each atom
          total WBO             WBO to atom ...
     1  N   3.096        C    2 1.662    H    8 0.937    N    4 0.130    O    5 0.123    N    6 0.119
     2  C   3.941        N    1 1.662    N    3 1.118    C    7 0.942    N    4 0.122
     3  N   3.657        N    4 2.228    C    2 1.118    N    6 0.104
     4  N   2.748        N    3 2.228    N    6 0.210    N    1 0.130    C    2 0.122
     5  O   2.070        N    6 1.501    C    7 0.292    N    1 0.123
     6  N   3.643        C    7 1.661    O    5 1.501    N    4 0.210    N    1 0.119    N    3 0.104
     7  C   3.940        N    6 1.661    H    9 0.947    C    2 0.942    O    5 0.292
     8  H   0.973        N    1 0.937
     9  H   0.993        C    7 0.947

molecular dipole:
                 x           y           z       tot (Debye)
 q only:       -0.588      -0.257       0.536
   full:       -0.868      -0.352       0.538       2.745
molecular quadrupole (traceless):
                xx          xy          yy          xz          yz          zz
 q only:       -4.823       0.530       3.139       6.012      -1.806       1.684
  q+dip:       -6.691       0.358       4.127       9.040      -1.369       2.565
   full:       -7.530       0.101       5.353       9.808      -0.781       2.176


           -------------------------------------------------
          | TOTAL ENERGY              -20.839375035843 Eh   |
          | GRADIENT NORM               0.051954493022 Eh/α |
          | HOMO-LUMO GAP               0.351320333793 eV   |
           -------------------------------------------------

------------------------------------------------------------------------
 * finished run on 2021/06/02 at 10:00:08.321     
------------------------------------------------------------------------
 total:
 * wall-time:     0 d,  0 h,  0 min,  0.017 sec
 *  cpu-time:     0 d,  0 h,  0 min,  0.017 sec
 * ratio c/w:     0.986 speedup
 SCF:
 * wall-time:     0 d,  0 h,  0 min,  0.009 sec
 *  cpu-time:     0 d,  0 h,  0 min,  0.009 sec
 * ratio c/w:     1.000 speedup

