      -----------------------------------------------------------      
     |                   =====================                   |     
     |                           x T B                           |     
     |                   =====================                   |     
     |                         S. Grimme                         |     
     |          Mulliken Center for Theoretical Chemistry        |     
     |                    University of Bonn                     |     
     |                 Version 6.1.4 (SAW190525)                 |     
      -----------------------------------------------------------      

   This program is distributed in the hope that it will be useful,
   but WITHOUT ANY WARRANTY; without even the implied warranty of
   MERCHANTABILITY or FITNESS FOR A PARTICULAR PURPOSE.
   
   FOR NON-COMMERCIAL, ACADEMIA USE ONLY.
   
   Cite this work as:
   S. Grimme, C. Bannwarth, P. Shushkov, J. Comput. Theory Chem., 2017,
   13, 1989-2009. DOI: 10.1021/acs.jctc.7b00118
   C. Bannwarth, S. Ehlert and S. Grimme., J. Comput. Theory Chem., 2019,
   just accepted. DOI: 10.1021/acs.jctc.8b01176
   
   for sTDA-xTB:
   S. Grimme and C. Bannwarth, J. Chem. Phys., 2016, 145, 054103.
   DOI: 10.1063/1.4959605
   
   in the mass-spec context:
   V. Asgeirsson, C. Bauer and S. Grimme, Chem. Sci., 2017, 8, 4879.
   DOI: 10.1039/c7sc00601b
   
   for metadynamics refer to:
   S. Grimme, J. Chem. Theory Comput. Article ASAP, 2019,
   DOI: 10.1021/acs.jctc.9b00143
   
   with help from (in alphabetical order)
   C. Bannwarth, F. Bohle, G. Brandenburg, E. Caldeweyher, M. Checinski,
   S. Dohm, S. Ehlert, S. Ehrlich, F. März, H. Neugebauer, J. Pisarek,
   P. Pracht, P. Shushkov, and S. Spicher.
   
 * started run on 2021/06/02 at 10:00:07.208     

           -------------------------------------------------
          |                Calculation Setup                |
           -------------------------------------------------

          program call               : /groups/kemi/koerstz/opt/xtb/6.1/bin/xtb 42.xyz --gfn2 --acc 0.2 --chrg 0
          hostname                   : node305
          coordinate file            : 42.xyz
          omp threads                :                     1
          number of atoms            :                     9
          number of electrons        :                    36
          charge                     :                     0
          spin                       :                   0.0
          first test random number   :      0.06501304569007


########################################################################
# WARNING! Please study the warnings concerning your input carefully
#  - XTBPATH is not set, using XTBHOME instead
########################################################################

           ------------------------------------------------- 
          |                 G F N 2 - x T B                 |
          | Geometry, Frequencies, Noncovalent interactions |
          |            JCTC 2018 parametrisation            |
           ------------------------------------------------- 
             k(s)              :                1.8500
             k(p)              :                2.2300
             k(d)              :                2.2300
             k(f)              :                2.0000
             kEN (H0ij)        :               -2.0000
             D4 a1             :                0.5200
             D4 a2             :                5.0000
             D4 s6             :                1.0000
             D4 s8             :                2.7000
             D4 s9             :                5.0000
             alphaj            :                2.0000

  Z AO/shell   Hii/eV     exponent
  1     Wed Apr 25 08:07:45 CEST 2018   EN: 2.200 GM2: 0.406  GM3: 0.0800  RAES: 1.40
     1s    -10.707211    1.230000
  6     Wed Apr 25 08:07:45 CEST 2018   EN: 2.550 GM2: 0.538  GM3: 0.1500  RAES: 3.00
     2s    -13.970922    2.096432
     2p    -10.063292    1.800000
  7     Wed Apr 25 08:07:45 CEST 2018   EN: 3.040 GM2: 0.461  GM3:-0.0640  RAES: 1.90
     2s    -16.686243    2.339881
     2p    -12.523956    2.014332
  8     Wed Apr 25 08:07:45 CEST 2018   EN: 3.440 GM2: 0.452  GM3:-0.0517  RAES: 1.80
     2s    -20.229985    2.439742
     2p    -15.503117    2.137023


            Z     q(EN)     CN     RAES       Cart. coordinates
     1  N   5.0   -0.41    2.01    1.90    -0.64978    -0.07801    -2.29956
     2  C   4.0    0.32    3.01    3.02    -0.77565    -1.37116    -0.25311
     3  N   5.0   -0.15    2.03    1.90    -2.96825    -2.31094     0.56332
     4  N   5.0   -0.15    1.00    1.90    -4.76151    -2.42741     1.73633
     5  O   6.0   -0.09    1.00    1.80     5.14801    -2.22949    -1.52892
     6  N   5.0   -0.16    2.00    1.90     3.62222    -2.60307     0.13760
     7  C   4.0    0.14    3.00    3.02     1.48250    -2.37883     1.09415
     8  H   1.0    0.32    1.00    1.43    -2.27153    -0.01317    -3.35549
     9  H   1.0    0.18    0.99    1.43     1.12878    -3.24011     3.00301

           ------------------------------------------------- 
          |        Self-Consistent Charge Iterations        |
           ------------------------------------------------- 
q/qsh data taken from xtbrestart
CAMM data taken from xtbrestart

          ...................................................
          :                      SETUP                      :
          :.................................................:
          :  # basis functions                  30          :
          :  # atomic orbitals                  30          :
          :  # shells                           16          :
          :  # electrons                        36          :
          :  max. iterations                   250          :
          :  Hamiltonian                  GFN2-xTB          :
          :  restarted?                       true          :
          :  GBSA solvation                  false          :
          :  PC potential                    false          :
          :  electronic temp.          300.0000000     K    :
          :  accuracy                    0.2000000          :
          :  -> integral cutoff          0.3198970E+02      :
          :  -> integral neglect         0.2000000E-08      :
          :  -> SCF convergence          0.2000000E-06 Eh   :
          :  -> wf. convergence          0.2000000E-04 e    :
          :  Broyden damping             0.4000000          :
          ...................................................

 iter      E             dE          RMSdq      gap      omega  full diag
   1    -20.6443975 -0.206444E+02  0.761E+00    0.68       0.0  T
   2    -20.6125042  0.318934E-01  0.787E+00    1.72       1.0  T
   3    -20.9471119 -0.334608E+00  0.416E+00    0.91       1.0  T
   4    -20.6849140  0.262198E+00  0.541E+00    0.54       1.0  T
   5    -20.9705456 -0.285632E+00  0.279E+00    0.41       1.0  T
   6    -21.0439529 -0.734073E-01  0.177E+00    0.46       1.0  T
   7    -21.0628115 -0.188586E-01  0.118E+00    0.34       1.0  T
   8    -21.0731570 -0.103456E-01  0.770E-01    0.32       1.0  T
   9    -21.0804059 -0.724882E-02  0.189E-01    0.32       1.0  T
  10    -21.0795810  0.824837E-03  0.312E-01    0.31       1.0  T
  11    -21.0809058 -0.132482E-02  0.383E-02    0.32       1.0  T
  12    -21.0809199 -0.140499E-04  0.182E-02    0.31       1.8  T
  13    -21.0809048  0.150675E-04  0.376E-02    0.32       1.0  T
  14    -21.0809219 -0.170623E-04  0.140E-02    0.31       2.4  T
  15    -21.0809245 -0.262964E-05  0.225E-03    0.31      14.8  T
  16    -21.0809245  0.370329E-07  0.287E-03    0.31      11.6  T
  17    -21.0809246 -0.111471E-06  0.725E-05    0.31     460.0  T
  18    -21.0809246  0.176950E-09  0.124E-04    0.31     268.1  T

   *** convergence criteria satisfied after 18 iterations ***

         #    Occupation            Energy/Eh            Energy/eV
      -------------------------------------------------------------
         1        2.0000           -0.7471985             -20.3323
       ...           ...                  ...                  ...
        12        2.0000           -0.5461433             -14.8613
        13        2.0000           -0.5204258             -14.1615
        14        2.0000           -0.5096992             -13.8696
        15        2.0000           -0.4934696             -13.4280
        16        2.0000           -0.4331656             -11.7870
        17        2.0000           -0.4254048             -11.5759
        18        1.9954           -0.3651431              -9.9360 (HOMO)
        19        0.0046           -0.3535984              -9.6219 (LUMO)
        20                         -0.3247985              -8.8382
        21                         -0.2819156              -7.6713
        22                         -0.1901733              -5.1749
        23                          0.0072701               0.1978
       ...                                ...                  ...
        30                          0.8430272              22.9399
      -------------------------------------------------------------
                  HL-Gap            0.0115447 Eh            0.3141 eV
             Fermi-level           -0.3593707 Eh           -9.7790 eV

 SCC (total)                   0 d,  0 h,  0 min,  0.009 sec
 SCC setup                      ...        0 min,  0.000 sec (  1.813%)
 Dispersion                     ...        0 min,  0.000 sec (  0.843%)
 integral evaluation            ...        0 min,  0.001 sec ( 12.275%)
 zeroth order Hamiltonian       ...        0 min,  0.000 sec (  0.383%)
 iterations                     ...        0 min,  0.005 sec ( 59.727%)
 molecular gradient             ...        0 min,  0.002 sec ( 22.737%)
 printout                       ...        0 min,  0.000 sec (  1.791%)

         :::::::::::::::::::::::::::::::::::::::::::::::::::::
         ::                     SUMMARY                     ::
         :::::::::::::::::::::::::::::::::::::::::::::::::::::
         :: total energy              -20.836342404405 Eh   ::
         :: gradient norm               0.048424051401 Eh/α ::
         :: HOMO-LUMO gap               0.314147369347 eV   ::
         ::.................................................::
         :: SCC energy                -21.080924582790 Eh   ::
         :: -> isotropic ES             0.026056540236 Eh   ::
         :: -> anisotropic ES           0.004644301955 Eh   ::
         :: -> anisotropic XC           0.026813598192 Eh   ::
         :: -> dispersion              -0.005641108466 Eh   ::
         :: repulsion energy            0.244579483481 Eh   ::
         :: add. restraining            0.000000000000 Eh   ::
         :::::::::::::::::::::::::::::::::::::::::::::::::::::

           -------------------------------------------------
          |                Property Printout                |
           -------------------------------------------------

    * Orbital Energies and Occupations

         #    Occupation            Energy/Eh            Energy/eV
      -------------------------------------------------------------
         1        2.0000           -0.7471985             -20.3323
       ...           ...                  ...                  ...
         6        2.0000           -0.6363855             -17.3169
         7        2.0000           -0.6091895             -16.5769
         8        2.0000           -0.5973860             -16.2557
         9        2.0000           -0.5945588             -16.1788
        10        2.0000           -0.5924114             -16.1203
        11        2.0000           -0.5713159             -15.5463
        12        2.0000           -0.5461433             -14.8613
        13        2.0000           -0.5204258             -14.1615
        14        2.0000           -0.5096992             -13.8696
        15        2.0000           -0.4934696             -13.4280
        16        2.0000           -0.4331656             -11.7870
        17        2.0000           -0.4254048             -11.5759
        18        1.9954           -0.3651431              -9.9360 (HOMO)
        19        0.0046           -0.3535984              -9.6219 (LUMO)
        20                         -0.3247985              -8.8382
        21                         -0.2819156              -7.6713
        22                         -0.1901733              -5.1749
        23                          0.0072701               0.1978
        24                          0.0639252               1.7395
        25                          0.0871772               2.3722
        26                          0.1862988               5.0694
        27                          0.2749934               7.4830
        28                          0.4745742              12.9138
        29                          0.7415688              20.1791
        30                          0.8430272              22.9399
      -------------------------------------------------------------
                  HL-Gap            0.0115447 Eh            0.3141 eV
             Fermi-level           -0.3593707 Eh           -9.7790 eV

   #   Z        covCN         q      C6AA      α(0)
   1   7 N      1.788    -0.308    28.808     7.950
   2   6 C      2.806     0.149    24.764     8.153
   3   7 N      1.915     0.122    19.780     6.594
   4   7 N      0.985    -0.106    22.953     6.890
   5   8 O      0.924    -0.253    18.933     5.835
   6   7 N      1.837     0.195    18.600     6.391
   7   6 C      2.820    -0.029    28.712     8.780
   8   1 H      0.859     0.158     1.345     1.817
   9   1 H      0.919     0.073     2.052     2.240

 Mol. C6AA /au·bohr⁶  :       1305.415632
 Mol. C8AA /au·bohr⁸  :      29821.421855
 Mol. α(0) /au        :         54.650096


Wiberg/Mayer (AO) data.
largest (>0.10) Wiberg bond orders for each atom
          total WBO             WBO to atom ...
     1  N   3.098        C    2 1.602    H    8 0.940    O    5 0.142    N    6 0.142    N    4 0.135    N    3 0.101
     2  C   3.935        N    1 1.602    N    3 1.146    C    7 0.945    N    4 0.142
     3  N   3.699        N    4 2.253    C    2 1.146    N    1 0.101
     4  N   2.778        N    3 2.253    N    6 0.191    C    2 0.142    N    1 0.135
     5  O   2.066        N    6 1.490    C    7 0.288    N    1 0.142
     6  N   3.649        C    7 1.682    O    5 1.490    N    4 0.191    N    1 0.142
     7  C   3.942        N    6 1.682    C    2 0.945    H    9 0.937    O    5 0.288
     8  H   0.975        N    1 0.940
     9  H   0.994        C    7 0.937

molecular dipole:
                 x           y           z       tot (Debye)
 q only:       -0.690      -0.315       0.625
   full:       -0.958      -0.419       0.631       3.105
molecular quadrupole (traceless):
                xx          xy          yy          xz          yz          zz
 q only:       -5.132       0.991       3.350       5.616      -1.916       1.782
  q+dip:       -7.215       0.846       4.246       8.503      -1.546       2.969
   full:       -8.170       0.598       5.347       9.331      -0.985       2.823


           -------------------------------------------------
          | TOTAL ENERGY              -20.836342404405 Eh   |
          | GRADIENT NORM               0.048424051401 Eh/α |
          | HOMO-LUMO GAP               0.314147369347 eV   |
           -------------------------------------------------

------------------------------------------------------------------------
 * finished run on 2021/06/02 at 10:00:07.226     
------------------------------------------------------------------------
 total:
 * wall-time:     0 d,  0 h,  0 min,  0.017 sec
 *  cpu-time:     0 d,  0 h,  0 min,  0.017 sec
 * ratio c/w:     0.986 speedup
 SCF:
 * wall-time:     0 d,  0 h,  0 min,  0.009 sec
 *  cpu-time:     0 d,  0 h,  0 min,  0.009 sec
 * ratio c/w:     0.996 speedup

