      -----------------------------------------------------------      
     |                   =====================                   |     
     |                           x T B                           |     
     |                   =====================                   |     
     |                         S. Grimme                         |     
     |          Mulliken Center for Theoretical Chemistry        |     
     |                    University of Bonn                     |     
     |                 Version 6.1.4 (SAW190525)                 |     
      -----------------------------------------------------------      

   This program is distributed in the hope that it will be useful,
   but WITHOUT ANY WARRANTY; without even the implied warranty of
   MERCHANTABILITY or FITNESS FOR A PARTICULAR PURPOSE.
   
   FOR NON-COMMERCIAL, ACADEMIA USE ONLY.
   
   Cite this work as:
   S. Grimme, C. Bannwarth, P. Shushkov, J. Comput. Theory Chem., 2017,
   13, 1989-2009. DOI: 10.1021/acs.jctc.7b00118
   C. Bannwarth, S. Ehlert and S. Grimme., J. Comput. Theory Chem., 2019,
   just accepted. DOI: 10.1021/acs.jctc.8b01176
   
   for sTDA-xTB:
   S. Grimme and C. Bannwarth, J. Chem. Phys., 2016, 145, 054103.
   DOI: 10.1063/1.4959605
   
   in the mass-spec context:
   V. Asgeirsson, C. Bauer and S. Grimme, Chem. Sci., 2017, 8, 4879.
   DOI: 10.1039/c7sc00601b
   
   for metadynamics refer to:
   S. Grimme, J. Chem. Theory Comput. Article ASAP, 2019,
   DOI: 10.1021/acs.jctc.9b00143
   
   with help from (in alphabetical order)
   C. Bannwarth, F. Bohle, G. Brandenburg, E. Caldeweyher, M. Checinski,
   S. Dohm, S. Ehlert, S. Ehrlich, F. März, H. Neugebauer, J. Pisarek,
   P. Pracht, P. Shushkov, and S. Spicher.
   
 * started run on 2021/06/02 at 10:00:07.536     

           -------------------------------------------------
          |                Calculation Setup                |
           -------------------------------------------------

          program call               : /groups/kemi/koerstz/opt/xtb/6.1/bin/xtb 43.xyz --gfn2 --acc 0.2 --chrg 0
          hostname                   : node305
          coordinate file            : 43.xyz
          omp threads                :                     1
          number of atoms            :                     9
          number of electrons        :                    36
          charge                     :                     0
          spin                       :                   0.0
          first test random number   :      0.23709760892824


########################################################################
# WARNING! Please study the warnings concerning your input carefully
#  - XTBPATH is not set, using XTBHOME instead
########################################################################

           ------------------------------------------------- 
          |                 G F N 2 - x T B                 |
          | Geometry, Frequencies, Noncovalent interactions |
          |            JCTC 2018 parametrisation            |
           ------------------------------------------------- 
             k(s)              :                1.8500
             k(p)              :                2.2300
             k(d)              :                2.2300
             k(f)              :                2.0000
             kEN (H0ij)        :               -2.0000
             D4 a1             :                0.5200
             D4 a2             :                5.0000
             D4 s6             :                1.0000
             D4 s8             :                2.7000
             D4 s9             :                5.0000
             alphaj            :                2.0000

  Z AO/shell   Hii/eV     exponent
  1     Wed Apr 25 08:07:45 CEST 2018   EN: 2.200 GM2: 0.406  GM3: 0.0800  RAES: 1.40
     1s    -10.707211    1.230000
  6     Wed Apr 25 08:07:45 CEST 2018   EN: 2.550 GM2: 0.538  GM3: 0.1500  RAES: 3.00
     2s    -13.970922    2.096432
     2p    -10.063292    1.800000
  7     Wed Apr 25 08:07:45 CEST 2018   EN: 3.040 GM2: 0.461  GM3:-0.0640  RAES: 1.90
     2s    -16.686243    2.339881
     2p    -12.523956    2.014332
  8     Wed Apr 25 08:07:45 CEST 2018   EN: 3.440 GM2: 0.452  GM3:-0.0517  RAES: 1.80
     2s    -20.229985    2.439742
     2p    -15.503117    2.137023


            Z     q(EN)     CN     RAES       Cart. coordinates
     1  N   5.0   -0.41    2.02    1.90    -0.72587    -0.11656    -2.31267
     2  C   4.0    0.31    3.00    3.02    -0.77189    -1.39159    -0.25905
     3  N   5.0   -0.15    2.03    1.90    -2.93723    -2.26267     0.68495
     4  N   5.0   -0.15    1.01    1.90    -4.82066    -2.39927     1.58943
     5  O   6.0   -0.09    1.00    1.80     5.26459    -2.22760    -1.38846
     6  N   5.0   -0.16    2.00    1.90     3.65608    -2.68776     0.10966
     7  C   4.0    0.14    3.01    3.02     1.49157    -2.44638     1.01257
     8  H   1.0    0.33    1.00    1.43    -2.40401     0.02322    -3.25845
     9  H   1.0    0.18    0.99    1.43     1.20221    -3.14358     2.91934

           ------------------------------------------------- 
          |        Self-Consistent Charge Iterations        |
           ------------------------------------------------- 
q/qsh data taken from xtbrestart
CAMM data taken from xtbrestart

          ...................................................
          :                      SETUP                      :
          :.................................................:
          :  # basis functions                  30          :
          :  # atomic orbitals                  30          :
          :  # shells                           16          :
          :  # electrons                        36          :
          :  max. iterations                   250          :
          :  Hamiltonian                  GFN2-xTB          :
          :  restarted?                       true          :
          :  GBSA solvation                  false          :
          :  PC potential                    false          :
          :  electronic temp.          300.0000000     K    :
          :  accuracy                    0.2000000          :
          :  -> integral cutoff          0.3198970E+02      :
          :  -> integral neglect         0.2000000E-08      :
          :  -> SCF convergence          0.2000000E-06 Eh   :
          :  -> wf. convergence          0.2000000E-04 e    :
          :  Broyden damping             0.4000000          :
          ...................................................

 iter      E             dE          RMSdq      gap      omega  full diag
   1    -20.7594630 -0.207595E+02  0.723E+00    0.76       0.0  T
   2    -20.6563576  0.103105E+00  0.828E+00    1.68       1.0  T
   3    -20.9502608 -0.293903E+00  0.496E+00    0.87       1.0  T
   4    -20.6508311  0.299430E+00  0.569E+00    0.37       1.0  T
   5    -20.8933161 -0.242485E+00  0.391E+00    0.63       1.0  T
   6    -21.0965431 -0.203227E+00  0.939E-01    0.30       1.0  T
   7    -21.0977934 -0.125033E-02  0.835E-01    0.31       1.0  T
   8    -20.9481794  0.149614E+00  0.339E+00    0.38       1.0  T
   9    -21.0810331 -0.132854E+00  0.125E+00    0.27       1.0  T
  10    -21.1019833 -0.209502E-01  0.232E-01    0.25       1.0  T
  11    -21.0999401  0.204326E-02  0.448E-01    0.25       1.0  T
  12    -21.1025538 -0.261370E-02  0.103E-01    0.25       1.0  T
  13    -21.1025196  0.341362E-04  0.115E-01    0.26       1.0  T
  14    -21.1026596 -0.139986E-03  0.548E-02    0.26       1.0  T
  15    -21.1026966 -0.369473E-04  0.168E-02    0.25       2.0  T
  16    -21.1027003 -0.370562E-05  0.330E-03    0.25      10.1  T
  17    -21.1027004 -0.127331E-06  0.784E-04    0.25      42.5  T
  18    -21.1027004 -0.274797E-08  0.621E-04    0.25      53.7  T
  19    -21.1027004 -0.516665E-08  0.545E-05    0.25     612.1  T
  20    -21.1027004 -0.188471E-10  0.413E-05    0.25     807.9  T

   *** convergence criteria satisfied after 20 iterations ***

         #    Occupation            Energy/Eh            Energy/eV
      -------------------------------------------------------------
         1        2.0000           -0.7533344             -20.4993
       ...           ...                  ...                  ...
        12        2.0000           -0.5450544             -14.8317
        13        2.0000           -0.5196396             -14.1401
        14        2.0000           -0.5098335             -13.8733
        15        2.0000           -0.4922109             -13.3937
        16        2.0000           -0.4290472             -11.6750
        17        2.0000           -0.4213359             -11.4651
        18        1.9856           -0.3553433              -9.6694 (HOMO)
        19        0.0144           -0.3459878              -9.4148 (LUMO)
        20                         -0.3170552              -8.6275
        21                         -0.2727349              -7.4215
        22                         -0.1775577              -4.8316
        23                          0.0352032               0.9579
       ...                                ...                  ...
        30                          0.9727171              26.4690
      -------------------------------------------------------------
                  HL-Gap            0.0093555 Eh            0.2546 eV
             Fermi-level           -0.3506655 Eh           -9.5421 eV

 SCC (total)                   0 d,  0 h,  0 min,  0.009 sec
 SCC setup                      ...        0 min,  0.000 sec (  1.467%)
 Dispersion                     ...        0 min,  0.000 sec (  0.646%)
 integral evaluation            ...        0 min,  0.001 sec ( 12.229%)
 zeroth order Hamiltonian       ...        0 min,  0.000 sec (  0.379%)
 iterations                     ...        0 min,  0.006 sec ( 61.133%)
 molecular gradient             ...        0 min,  0.002 sec ( 21.826%)
 printout                       ...        0 min,  0.000 sec (  1.878%)

         :::::::::::::::::::::::::::::::::::::::::::::::::::::
         ::                     SUMMARY                     ::
         :::::::::::::::::::::::::::::::::::::::::::::::::::::
         :: total energy              -20.831921835282 Eh   ::
         :: gradient norm               0.120934945372 Eh/α ::
         :: HOMO-LUMO gap               0.254575029381 eV   ::
         ::.................................................::
         :: SCC energy                -21.102700416235 Eh   ::
         :: -> isotropic ES             0.025765258383 Eh   ::
         :: -> anisotropic ES           0.004987192201 Eh   ::
         :: -> anisotropic XC           0.025631164801 Eh   ::
         :: -> dispersion              -0.005631487575 Eh   ::
         :: repulsion energy            0.270776279355 Eh   ::
         :: add. restraining            0.000000000000 Eh   ::
         :::::::::::::::::::::::::::::::::::::::::::::::::::::

           -------------------------------------------------
          |                Property Printout                |
           -------------------------------------------------

    * Orbital Energies and Occupations

         #    Occupation            Energy/Eh            Energy/eV
      -------------------------------------------------------------
         1        2.0000           -0.7533344             -20.4993
       ...           ...                  ...                  ...
         6        2.0000           -0.6363088             -17.3148
         7        2.0000           -0.6155822             -16.7508
         8        2.0000           -0.6022213             -16.3873
         9        2.0000           -0.6006328             -16.3440
        10        2.0000           -0.5944642             -16.1762
        11        2.0000           -0.5756818             -15.6651
        12        2.0000           -0.5450544             -14.8317
        13        2.0000           -0.5196396             -14.1401
        14        2.0000           -0.5098335             -13.8733
        15        2.0000           -0.4922109             -13.3937
        16        2.0000           -0.4290472             -11.6750
        17        2.0000           -0.4213359             -11.4651
        18        1.9856           -0.3553433              -9.6694 (HOMO)
        19        0.0144           -0.3459878              -9.4148 (LUMO)
        20                         -0.3170552              -8.6275
        21                         -0.2727349              -7.4215
        22                         -0.1775577              -4.8316
        23                          0.0352032               0.9579
        24                          0.0674863               1.8364
        25                          0.1204875               3.2786
        26                          0.2189428               5.9577
        27                          0.2981317               8.1126
        28                          0.4961028              13.4996
        29                          0.7897837              21.4911
        30                          0.9727171              26.4690
      -------------------------------------------------------------
                  HL-Gap            0.0093555 Eh            0.2546 eV
             Fermi-level           -0.3506655 Eh           -9.5421 eV

   #   Z        covCN         q      C6AA      α(0)
   1   7 N      1.789    -0.319    29.094     7.989
   2   6 C      2.806     0.139    24.955     8.184
   3   7 N      1.919     0.145    19.395     6.530
   4   7 N      0.986    -0.102    22.868     6.877
   5   8 O      0.924    -0.244    18.768     5.810
   6   7 N      1.836     0.197    18.556     6.384
   7   6 C      2.830    -0.040    28.985     8.822
   8   1 H      0.860     0.151     1.394     1.849
   9   1 H      0.925     0.072     2.061     2.245

 Mol. C6AA /au·bohr⁶  :       1306.761780
 Mol. C8AA /au·bohr⁸  :      29853.299017
 Mol. α(0) /au        :         54.690234


Wiberg/Mayer (AO) data.
largest (>0.10) Wiberg bond orders for each atom
          total WBO             WBO to atom ...
     1  N   3.090        C    2 1.563    H    8 0.943    N    6 0.153    O    5 0.148    N    4 0.135    N    3 0.107
     2  C   3.928        N    1 1.563    N    3 1.145    C    7 0.966    N    4 0.153
     3  N   3.726        N    4 2.287    C    2 1.145    N    1 0.107
     4  N   2.804        N    3 2.287    N    6 0.176    C    2 0.153    N    1 0.135
     5  O   2.084        N    6 1.513    C    7 0.285    N    1 0.148
     6  N   3.640        C    7 1.656    O    5 1.513    N    4 0.176    N    1 0.153
     7  C   3.942        N    6 1.656    C    2 0.966    H    9 0.939    O    5 0.285
     8  H   0.977        N    1 0.943
     9  H   0.994        C    7 0.939

molecular dipole:
                 x           y           z       tot (Debye)
 q only:       -0.706      -0.353       0.677
   full:       -0.977      -0.442       0.699       3.255
molecular quadrupole (traceless):
                xx          xy          yy          xz          yz          zz
 q only:       -4.902       1.029       3.415       4.831      -1.887       1.487
  q+dip:       -7.002       0.800       4.332       7.732      -1.422       2.670
   full:       -8.090       0.647       5.339       8.499      -0.925       2.751


           -------------------------------------------------
          | TOTAL ENERGY              -20.831921835282 Eh   |
          | GRADIENT NORM               0.120934945372 Eh/α |
          | HOMO-LUMO GAP               0.254575029381 eV   |
           -------------------------------------------------

------------------------------------------------------------------------
 * finished run on 2021/06/02 at 10:00:07.554     
------------------------------------------------------------------------
 total:
 * wall-time:     0 d,  0 h,  0 min,  0.017 sec
 *  cpu-time:     0 d,  0 h,  0 min,  0.017 sec
 * ratio c/w:     0.988 speedup
 SCF:
 * wall-time:     0 d,  0 h,  0 min,  0.009 sec
 *  cpu-time:     0 d,  0 h,  0 min,  0.009 sec
 * ratio c/w:     1.000 speedup

