      -----------------------------------------------------------      
     |                   =====================                   |     
     |                           x T B                           |     
     |                   =====================                   |     
     |                         S. Grimme                         |     
     |          Mulliken Center for Theoretical Chemistry        |     
     |                    University of Bonn                     |     
     |                 Version 6.1.4 (SAW190525)                 |     
      -----------------------------------------------------------      

   This program is distributed in the hope that it will be useful,
   but WITHOUT ANY WARRANTY; without even the implied warranty of
   MERCHANTABILITY or FITNESS FOR A PARTICULAR PURPOSE.
   
   FOR NON-COMMERCIAL, ACADEMIA USE ONLY.
   
   Cite this work as:
   S. Grimme, C. Bannwarth, P. Shushkov, J. Comput. Theory Chem., 2017,
   13, 1989-2009. DOI: 10.1021/acs.jctc.7b00118
   C. Bannwarth, S. Ehlert and S. Grimme., J. Comput. Theory Chem., 2019,
   just accepted. DOI: 10.1021/acs.jctc.8b01176
   
   for sTDA-xTB:
   S. Grimme and C. Bannwarth, J. Chem. Phys., 2016, 145, 054103.
   DOI: 10.1063/1.4959605
   
   in the mass-spec context:
   V. Asgeirsson, C. Bauer and S. Grimme, Chem. Sci., 2017, 8, 4879.
   DOI: 10.1039/c7sc00601b
   
   for metadynamics refer to:
   S. Grimme, J. Chem. Theory Comput. Article ASAP, 2019,
   DOI: 10.1021/acs.jctc.9b00143
   
   with help from (in alphabetical order)
   C. Bannwarth, F. Bohle, G. Brandenburg, E. Caldeweyher, M. Checinski,
   S. Dohm, S. Ehlert, S. Ehrlich, F. März, H. Neugebauer, J. Pisarek,
   P. Pracht, P. Shushkov, and S. Spicher.
   
 * started run on 2021/06/02 at 10:00:08.239     

           -------------------------------------------------
          |                Calculation Setup                |
           -------------------------------------------------

          program call               : /groups/kemi/koerstz/opt/xtb/6.1/bin/xtb 44.xyz --gfn2 --acc 0.2 --chrg 0
          hostname                   : node305
          coordinate file            : 44.xyz
          omp threads                :                     1
          number of atoms            :                     9
          number of electrons        :                    36
          charge                     :                     0
          spin                       :                   0.0
          first test random number   :      0.64085044594122


########################################################################
# WARNING! Please study the warnings concerning your input carefully
#  - XTBPATH is not set, using XTBHOME instead
########################################################################

           ------------------------------------------------- 
          |                 G F N 2 - x T B                 |
          | Geometry, Frequencies, Noncovalent interactions |
          |            JCTC 2018 parametrisation            |
           ------------------------------------------------- 
             k(s)              :                1.8500
             k(p)              :                2.2300
             k(d)              :                2.2300
             k(f)              :                2.0000
             kEN (H0ij)        :               -2.0000
             D4 a1             :                0.5200
             D4 a2             :                5.0000
             D4 s6             :                1.0000
             D4 s8             :                2.7000
             D4 s9             :                5.0000
             alphaj            :                2.0000

  Z AO/shell   Hii/eV     exponent
  1     Wed Apr 25 08:07:45 CEST 2018   EN: 2.200 GM2: 0.406  GM3: 0.0800  RAES: 1.40
     1s    -10.707211    1.230000
  6     Wed Apr 25 08:07:45 CEST 2018   EN: 2.550 GM2: 0.538  GM3: 0.1500  RAES: 3.00
     2s    -13.970922    2.096432
     2p    -10.063292    1.800000
  7     Wed Apr 25 08:07:45 CEST 2018   EN: 3.040 GM2: 0.461  GM3:-0.0640  RAES: 1.90
     2s    -16.686243    2.339881
     2p    -12.523956    2.014332
  8     Wed Apr 25 08:07:45 CEST 2018   EN: 3.440 GM2: 0.452  GM3:-0.0517  RAES: 1.80
     2s    -20.229985    2.439742
     2p    -15.503117    2.137023


            Z     q(EN)     CN     RAES       Cart. coordinates
     1  N   5.0   -0.41    2.01    1.90    -0.74392    -0.04445    -2.32014
     2  C   4.0    0.31    3.00    3.02    -0.80167    -1.36854    -0.27940
     3  N   5.0   -0.15    2.03    1.90    -2.95223    -2.35176     0.58125
     4  N   5.0   -0.15    1.00    1.90    -4.78228    -2.49407     1.70330
     5  O   6.0   -0.09    1.00    1.80     5.37345    -2.43069    -1.36740
     6  N   5.0   -0.16    2.00    1.90     3.62881    -2.60762     0.10777
     7  C   4.0    0.14    3.01    3.02     1.49166    -2.33226     1.04894
     8  H   1.0    0.32    1.00    1.43    -2.43192     0.05887    -3.28003
     9  H   1.0    0.18    1.00    1.43     1.17289    -3.08168     2.90304

           ------------------------------------------------- 
          |        Self-Consistent Charge Iterations        |
           ------------------------------------------------- 
q/qsh data taken from xtbrestart
CAMM data taken from xtbrestart

          ...................................................
          :                      SETUP                      :
          :.................................................:
          :  # basis functions                  30          :
          :  # atomic orbitals                  30          :
          :  # shells                           16          :
          :  # electrons                        36          :
          :  max. iterations                   250          :
          :  Hamiltonian                  GFN2-xTB          :
          :  restarted?                       true          :
          :  GBSA solvation                  false          :
          :  PC potential                    false          :
          :  electronic temp.          300.0000000     K    :
          :  accuracy                    0.2000000          :
          :  -> integral cutoff          0.3198970E+02      :
          :  -> integral neglect         0.2000000E-08      :
          :  -> SCF convergence          0.2000000E-06 Eh   :
          :  -> wf. convergence          0.2000000E-04 e    :
          :  Broyden damping             0.4000000          :
          ...................................................

 iter      E             dE          RMSdq      gap      omega  full diag
   1    -20.8854376 -0.208854E+02  0.409E+00    0.43       0.0  T
   2    -20.6604401  0.224997E+00  0.657E+00    1.76       1.0  T
   3    -20.8948142 -0.234374E+00  0.399E+00    1.05       1.0  T
   4    -21.0491329 -0.154319E+00  0.175E+00    0.32       1.0  T
   5    -21.0779164 -0.287835E-01  0.733E-01    0.28       1.0  T
   6    -21.0786544 -0.737977E-03  0.456E-01    0.26       1.0  T
   7    -21.0751616  0.349281E-02  0.654E-01    0.24       1.0  T
   8    -21.0804993 -0.533767E-02  0.201E-01    0.26       1.0  T
   9    -21.0805669 -0.676536E-04  0.175E-01    0.25       1.0  T
  10    -21.0808173 -0.250429E-03  0.106E-01    0.25       1.0  T
  11    -21.0809415 -0.124177E-03  0.512E-02    0.25       1.0  T
  12    -21.0809623 -0.208039E-04  0.322E-02    0.25       1.0  T
  13    -21.0809735 -0.112002E-04  0.141E-02    0.25       2.4  T
  14    -21.0809749 -0.135519E-05  0.965E-03    0.25       3.5  T
  15    -21.0809761 -0.122320E-05  0.182E-03    0.25      18.3  T
  16    -21.0809761 -0.401502E-07  0.468E-04    0.25      71.2  T
  17    -21.0809761 -0.272354E-08  0.124E-04    0.25     268.7  T
  18    -21.0809761 -0.196199E-09  0.240E-05    0.25    1390.8  T

   *** convergence criteria satisfied after 18 iterations ***

         #    Occupation            Energy/Eh            Energy/eV
      -------------------------------------------------------------
         1        2.0000           -0.7501516             -20.4127
       ...           ...                  ...                  ...
        12        2.0000           -0.5488651             -14.9354
        13        2.0000           -0.5189438             -14.1212
        14        2.0000           -0.5095769             -13.8663
        15        2.0000           -0.4930323             -13.4161
        16        2.0000           -0.4365650             -11.8795
        17        2.0000           -0.4252793             -11.5724
        18        1.9849           -0.3617554              -9.8439 (HOMO)
        19        0.0151           -0.3524915              -9.5918 (LUMO)
        20                         -0.3238237              -8.8117
        21                         -0.2828450              -7.6966
        22                         -0.1902888              -5.1780
        23                          0.0177833               0.4839
       ...                                ...                  ...
        30                          0.8497768              23.1236
      -------------------------------------------------------------
                  HL-Gap            0.0092639 Eh            0.2521 eV
             Fermi-level           -0.3571234 Eh           -9.7178 eV

 SCC (total)                   0 d,  0 h,  0 min,  0.008 sec
 SCC setup                      ...        0 min,  0.000 sec (  1.636%)
 Dispersion                     ...        0 min,  0.000 sec (  0.766%)
 integral evaluation            ...        0 min,  0.001 sec ( 12.312%)
 zeroth order Hamiltonian       ...        0 min,  0.000 sec (  0.390%)
 iterations                     ...        0 min,  0.005 sec ( 59.940%)
 molecular gradient             ...        0 min,  0.002 sec ( 22.633%)
 printout                       ...        0 min,  0.000 sec (  1.908%)

         :::::::::::::::::::::::::::::::::::::::::::::::::::::
         ::                     SUMMARY                     ::
         :::::::::::::::::::::::::::::::::::::::::::::::::::::
         :: total energy              -20.832669704719 Eh   ::
         :: gradient norm               0.044044309743 Eh/α ::
         :: HOMO-LUMO gap               0.252084599631 eV   ::
         ::.................................................::
         :: SCC energy                -21.080976137137 Eh   ::
         :: -> isotropic ES             0.025833499177 Eh   ::
         :: -> anisotropic ES           0.004616630967 Eh   ::
         :: -> anisotropic XC           0.026587044690 Eh   ::
         :: -> dispersion              -0.005584290677 Eh   ::
         :: repulsion energy            0.248303988732 Eh   ::
         :: add. restraining            0.000000000000 Eh   ::
         :::::::::::::::::::::::::::::::::::::::::::::::::::::

           -------------------------------------------------
          |                Property Printout                |
           -------------------------------------------------

    * Orbital Energies and Occupations

         #    Occupation            Energy/Eh            Energy/eV
      -------------------------------------------------------------
         1        2.0000           -0.7501516             -20.4127
       ...           ...                  ...                  ...
         6        2.0000           -0.6364357             -17.3183
         7        2.0000           -0.6080018             -16.5446
         8        2.0000           -0.6016667             -16.3722
         9        2.0000           -0.5959858             -16.2176
        10        2.0000           -0.5951734             -16.1955
        11        2.0000           -0.5717647             -15.5585
        12        2.0000           -0.5488651             -14.9354
        13        2.0000           -0.5189438             -14.1212
        14        2.0000           -0.5095769             -13.8663
        15        2.0000           -0.4930323             -13.4161
        16        2.0000           -0.4365650             -11.8795
        17        2.0000           -0.4252793             -11.5724
        18        1.9849           -0.3617554              -9.8439 (HOMO)
        19        0.0151           -0.3524915              -9.5918 (LUMO)
        20                         -0.3238237              -8.8117
        21                         -0.2828450              -7.6966
        22                         -0.1902888              -5.1780
        23                          0.0177833               0.4839
        24                          0.0554907               1.5100
        25                          0.0971474               2.6435
        26                          0.2024404               5.5087
        27                          0.2831647               7.7053
        28                          0.4687283              12.7547
        29                          0.7655011              20.8303
        30                          0.8497768              23.1236
      -------------------------------------------------------------
                  HL-Gap            0.0092639 Eh            0.2521 eV
             Fermi-level           -0.3571234 Eh           -9.7178 eV

   #   Z        covCN         q      C6AA      α(0)
   1   7 N      1.786    -0.314    28.953     7.969
   2   6 C      2.805     0.145    24.825     8.163
   3   7 N      1.916     0.119    19.832     6.603
   4   7 N      0.985    -0.112    23.063     6.907
   5   8 O      0.923    -0.249    18.860     5.824
   6   7 N      1.836     0.202    18.486     6.372
   7   6 C      2.827    -0.030    28.732     8.783
   8   1 H      0.859     0.156     1.361     1.827
   9   1 H      0.926     0.082     1.959     2.189

 Mol. C6AA /au·bohr⁶  :       1304.796944
 Mol. C8AA /au·bohr⁸  :      29820.908979
 Mol. α(0) /au        :         54.637149


Wiberg/Mayer (AO) data.
largest (>0.10) Wiberg bond orders for each atom
          total WBO             WBO to atom ...
     1  N   3.085        C    2 1.586    H    8 0.941    N    6 0.146    O    5 0.140    N    4 0.135    N    3 0.106
     2  C   3.933        N    1 1.586    N    3 1.159    C    7 0.942    N    4 0.147
     3  N   3.697        N    4 2.240    C    2 1.159    N    1 0.106
     4  N   2.768        N    3 2.240    N    6 0.192    C    2 0.147    N    1 0.135
     5  O   2.065        N    6 1.493    C    7 0.292    N    1 0.140
     6  N   3.667        C    7 1.694    O    5 1.493    N    4 0.192    N    1 0.146
     7  C   3.945        N    6 1.694    C    2 0.942    H    9 0.934    O    5 0.292
     8  H   0.975        N    1 0.941
     9  H   0.992        C    7 0.934

molecular dipole:
                 x           y           z       tot (Debye)
 q only:       -0.633      -0.281       0.623
   full:       -0.879      -0.381       0.629       2.913
molecular quadrupole (traceless):
                xx          xy          yy          xz          yz          zz
 q only:       -5.495       1.154       3.377       5.375      -1.860       2.118
  q+dip:       -7.418       0.937       4.185       8.155      -1.416       3.233
   full:       -8.443       0.691       5.252       8.998      -0.911       3.191


           -------------------------------------------------
          | TOTAL ENERGY              -20.832669704719 Eh   |
          | GRADIENT NORM               0.044044309743 Eh/α |
          | HOMO-LUMO GAP               0.252084599631 eV   |
           -------------------------------------------------

------------------------------------------------------------------------
 * finished run on 2021/06/02 at 10:00:08.256     
------------------------------------------------------------------------
 total:
 * wall-time:     0 d,  0 h,  0 min,  0.016 sec
 *  cpu-time:     0 d,  0 h,  0 min,  0.016 sec
 * ratio c/w:     0.988 speedup
 SCF:
 * wall-time:     0 d,  0 h,  0 min,  0.009 sec
 *  cpu-time:     0 d,  0 h,  0 min,  0.009 sec
 * ratio c/w:     1.000 speedup

