      -----------------------------------------------------------      
     |                   =====================                   |     
     |                           x T B                           |     
     |                   =====================                   |     
     |                         S. Grimme                         |     
     |          Mulliken Center for Theoretical Chemistry        |     
     |                    University of Bonn                     |     
     |                 Version 6.1.4 (SAW190525)                 |     
      -----------------------------------------------------------      

   This program is distributed in the hope that it will be useful,
   but WITHOUT ANY WARRANTY; without even the implied warranty of
   MERCHANTABILITY or FITNESS FOR A PARTICULAR PURPOSE.
   
   FOR NON-COMMERCIAL, ACADEMIA USE ONLY.
   
   Cite this work as:
   S. Grimme, C. Bannwarth, P. Shushkov, J. Comput. Theory Chem., 2017,
   13, 1989-2009. DOI: 10.1021/acs.jctc.7b00118
   C. Bannwarth, S. Ehlert and S. Grimme., J. Comput. Theory Chem., 2019,
   just accepted. DOI: 10.1021/acs.jctc.8b01176
   
   for sTDA-xTB:
   S. Grimme and C. Bannwarth, J. Chem. Phys., 2016, 145, 054103.
   DOI: 10.1063/1.4959605
   
   in the mass-spec context:
   V. Asgeirsson, C. Bauer and S. Grimme, Chem. Sci., 2017, 8, 4879.
   DOI: 10.1039/c7sc00601b
   
   for metadynamics refer to:
   S. Grimme, J. Chem. Theory Comput. Article ASAP, 2019,
   DOI: 10.1021/acs.jctc.9b00143
   
   with help from (in alphabetical order)
   C. Bannwarth, F. Bohle, G. Brandenburg, E. Caldeweyher, M. Checinski,
   S. Dohm, S. Ehlert, S. Ehrlich, F. März, H. Neugebauer, J. Pisarek,
   P. Pracht, P. Shushkov, and S. Spicher.
   
 * started run on 2021/06/02 at 10:00:07.736     

           -------------------------------------------------
          |                Calculation Setup                |
           -------------------------------------------------

          program call               : /groups/kemi/koerstz/opt/xtb/6.1/bin/xtb 46.xyz --gfn2 --acc 0.2 --chrg 0
          hostname                   : node305
          coordinate file            : 46.xyz
          omp threads                :                     1
          number of atoms            :                     9
          number of electrons        :                    36
          charge                     :                     0
          spin                       :                   0.0
          first test random number   :      0.41543682492903


########################################################################
# WARNING! Please study the warnings concerning your input carefully
#  - XTBPATH is not set, using XTBHOME instead
########################################################################

           ------------------------------------------------- 
          |                 G F N 2 - x T B                 |
          | Geometry, Frequencies, Noncovalent interactions |
          |            JCTC 2018 parametrisation            |
           ------------------------------------------------- 
             k(s)              :                1.8500
             k(p)              :                2.2300
             k(d)              :                2.2300
             k(f)              :                2.0000
             kEN (H0ij)        :               -2.0000
             D4 a1             :                0.5200
             D4 a2             :                5.0000
             D4 s6             :                1.0000
             D4 s8             :                2.7000
             D4 s9             :                5.0000
             alphaj            :                2.0000

  Z AO/shell   Hii/eV     exponent
  1     Wed Apr 25 08:07:45 CEST 2018   EN: 2.200 GM2: 0.406  GM3: 0.0800  RAES: 1.40
     1s    -10.707211    1.230000
  6     Wed Apr 25 08:07:45 CEST 2018   EN: 2.550 GM2: 0.538  GM3: 0.1500  RAES: 3.00
     2s    -13.970922    2.096432
     2p    -10.063292    1.800000
  7     Wed Apr 25 08:07:45 CEST 2018   EN: 3.040 GM2: 0.461  GM3:-0.0640  RAES: 1.90
     2s    -16.686243    2.339881
     2p    -12.523956    2.014332
  8     Wed Apr 25 08:07:45 CEST 2018   EN: 3.440 GM2: 0.452  GM3:-0.0517  RAES: 1.80
     2s    -20.229985    2.439742
     2p    -15.503117    2.137023


            Z     q(EN)     CN     RAES       Cart. coordinates
     1  N   5.0   -0.41    2.01    1.90    -0.71105    -0.11060    -2.30760
     2  C   4.0    0.31    3.01    3.02    -0.79425    -1.38685    -0.24915
     3  N   5.0   -0.15    2.03    1.90    -2.96527    -2.29055     0.64979
     4  N   5.0   -0.15    1.01    1.90    -4.82608    -2.40041     1.64337
     5  O   6.0   -0.09    1.00    1.80     5.32286    -2.24843    -1.37328
     6  N   5.0   -0.16    2.00    1.90     3.62201    -2.64304     0.06177
     7  C   4.0    0.14    3.01    3.02     1.48168    -2.46258     1.01975
     8  H   1.0    0.33    1.00    1.43    -2.38176     0.03117    -3.27955
     9  H   1.0    0.18    0.99    1.43     1.20666    -3.14090     2.93223

           ------------------------------------------------- 
          |        Self-Consistent Charge Iterations        |
           ------------------------------------------------- 
q/qsh data taken from xtbrestart
CAMM data taken from xtbrestart

          ...................................................
          :                      SETUP                      :
          :.................................................:
          :  # basis functions                  30          :
          :  # atomic orbitals                  30          :
          :  # shells                           16          :
          :  # electrons                        36          :
          :  max. iterations                   250          :
          :  Hamiltonian                  GFN2-xTB          :
          :  restarted?                       true          :
          :  GBSA solvation                  false          :
          :  PC potential                    false          :
          :  electronic temp.          300.0000000     K    :
          :  accuracy                    0.2000000          :
          :  -> integral cutoff          0.3198970E+02      :
          :  -> integral neglect         0.2000000E-08      :
          :  -> SCF convergence          0.2000000E-06 Eh   :
          :  -> wf. convergence          0.2000000E-04 e    :
          :  Broyden damping             0.4000000          :
          ...................................................

 iter      E             dE          RMSdq      gap      omega  full diag
   1    -20.6889807 -0.206890E+02  0.743E+00    0.71       0.0  T
   2    -20.6262189  0.627618E-01  0.797E+00    1.78       1.0  T
   3    -20.9603462 -0.334127E+00  0.423E+00    0.73       1.0  T
   4    -20.7139798  0.246366E+00  0.543E+00    0.52       1.0  T
   5    -20.8964352 -0.182455E+00  0.382E+00    0.56       1.0  T
   6    -21.0924843 -0.196049E+00  0.841E-01    0.30       1.0  T
   7    -21.0931970 -0.712670E-03  0.560E-01    0.29       1.0  T
   8    -21.0741181  0.190789E-01  0.121E+00    0.27       1.0  T
   9    -21.0257891  0.483290E-01  0.226E+00    0.36       1.0  T
  10    -21.0941562 -0.683670E-01  0.997E-02    0.26       1.0  T
  11    -21.0940028  0.153402E-03  0.141E-01    0.25       1.0  T
  12    -21.0940605 -0.577615E-04  0.124E-01    0.26       1.0  T
  13    -21.0942636 -0.203079E-03  0.233E-02    0.26       1.4  T
  14    -21.0942699 -0.633924E-05  0.600E-03    0.26       5.6  T
  15    -21.0942675  0.247227E-05  0.146E-02    0.26       2.3  T
  16    -21.0942703 -0.287075E-05  0.211E-03    0.26      15.8  T
  17    -21.0942704 -0.501594E-07  0.947E-04    0.26      35.2  T
  18    -21.0942704 -0.716750E-08  0.562E-04    0.26      59.3  T
  19    -21.0942704 -0.426495E-08  0.417E-05    0.26     800.0  T
  20    -21.0942704  0.454214E-10  0.690E-05    0.26     482.8  T

   *** convergence criteria satisfied after 20 iterations ***

         #    Occupation            Energy/Eh            Energy/eV
      -------------------------------------------------------------
         1        2.0000           -0.7529617             -20.4891
       ...           ...                  ...                  ...
        12        2.0000           -0.5471112             -14.8877
        13        2.0000           -0.5182037             -14.1010
        14        2.0000           -0.5088030             -13.8452
        15        2.0000           -0.4912080             -13.3665
        16        2.0000           -0.4321809             -11.7602
        17        2.0000           -0.4210063             -11.4562
        18        1.9859           -0.3560303              -9.6881 (HOMO)
        19        0.0141           -0.3466251              -9.4321 (LUMO)
        20                         -0.3169770              -8.6254
        21                         -0.2760373              -7.5114
        22                         -0.1820668              -4.9543
        23                          0.0244238               0.6646
       ...                                ...                  ...
        30                          0.9290196              25.2799
      -------------------------------------------------------------
                  HL-Gap            0.0094052 Eh            0.2559 eV
             Fermi-level           -0.3513277 Eh           -9.5601 eV

 SCC (total)                   0 d,  0 h,  0 min,  0.009 sec
 SCC setup                      ...        0 min,  0.000 sec (  1.463%)
 Dispersion                     ...        0 min,  0.000 sec (  0.716%)
 integral evaluation            ...        0 min,  0.001 sec ( 11.973%)
 zeroth order Hamiltonian       ...        0 min,  0.000 sec (  0.356%)
 iterations                     ...        0 min,  0.006 sec ( 61.666%)
 molecular gradient             ...        0 min,  0.002 sec ( 21.680%)
 printout                       ...        0 min,  0.000 sec (  1.753%)

         :::::::::::::::::::::::::::::::::::::::::::::::::::::
         ::                     SUMMARY                     ::
         :::::::::::::::::::::::::::::::::::::::::::::::::::::
         :: total energy              -20.831922442809 Eh   ::
         :: gradient norm               0.087482342960 Eh/α ::
         :: HOMO-LUMO gap               0.255928987899 eV   ::
         ::.................................................::
         :: SCC energy                -21.094270399652 Eh   ::
         :: -> isotropic ES             0.025604457531 Eh   ::
         :: -> anisotropic ES           0.004891327405 Eh   ::
         :: -> anisotropic XC           0.026197808200 Eh   ::
         :: -> dispersion              -0.005612721477 Eh   ::
         :: repulsion energy            0.262345728084 Eh   ::
         :: add. restraining            0.000000000000 Eh   ::
         :::::::::::::::::::::::::::::::::::::::::::::::::::::

           -------------------------------------------------
          |                Property Printout                |
           -------------------------------------------------

    * Orbital Energies and Occupations

         #    Occupation            Energy/Eh            Energy/eV
      -------------------------------------------------------------
         1        2.0000           -0.7529617             -20.4891
       ...           ...                  ...                  ...
         6        2.0000           -0.6354466             -17.2914
         7        2.0000           -0.6112362             -16.6326
         8        2.0000           -0.6021850             -16.3863
         9        2.0000           -0.5989402             -16.2980
        10        2.0000           -0.5962000             -16.2234
        11        2.0000           -0.5733347             -15.6012
        12        2.0000           -0.5471112             -14.8877
        13        2.0000           -0.5182037             -14.1010
        14        2.0000           -0.5088030             -13.8452
        15        2.0000           -0.4912080             -13.3665
        16        2.0000           -0.4321809             -11.7602
        17        2.0000           -0.4210063             -11.4562
        18        1.9859           -0.3560303              -9.6881 (HOMO)
        19        0.0141           -0.3466251              -9.4321 (LUMO)
        20                         -0.3169770              -8.6254
        21                         -0.2760373              -7.5114
        22                         -0.1820668              -4.9543
        23                          0.0244238               0.6646
        24                          0.0640877               1.7439
        25                          0.1107495               3.0136
        26                          0.2074235               5.6443
        27                          0.2900034               7.8914
        28                          0.4853783              13.2078
        29                          0.7965253              21.6746
        30                          0.9290196              25.2799
      -------------------------------------------------------------
                  HL-Gap            0.0094052 Eh            0.2559 eV
             Fermi-level           -0.3513277 Eh           -9.5601 eV

   #   Z        covCN         q      C6AA      α(0)
   1   7 N      1.787    -0.320    29.120     7.993
   2   6 C      2.806     0.139    24.967     8.186
   3   7 N      1.916     0.134    19.568     6.559
   4   7 N      0.986    -0.109    23.003     6.898
   5   8 O      0.924    -0.243    18.760     5.809
   6   7 N      1.837     0.205    18.435     6.363
   7   6 C      2.827    -0.037    28.902     8.809
   8   1 H      0.859     0.152     1.388     1.846
   9   1 H      0.925     0.079     1.994     2.208

 Mol. C6AA /au·bohr⁶  :       1305.967370
 Mol. C8AA /au·bohr⁸  :      29844.820976
 Mol. α(0) /au        :         54.669834


Wiberg/Mayer (AO) data.
largest (>0.10) Wiberg bond orders for each atom
          total WBO             WBO to atom ...
     1  N   3.086        C    2 1.570    H    8 0.942    N    6 0.152    O    5 0.145    N    4 0.133    N    3 0.107
     2  C   3.927        N    1 1.570    N    3 1.153    C    7 0.948    N    4 0.155
     3  N   3.714        N    4 2.269    C    2 1.153    N    1 0.107
     4  N   2.791        N    3 2.269    N    6 0.181    C    2 0.155    N    1 0.133
     5  O   2.082        N    6 1.508    C    7 0.292    N    1 0.145
     6  N   3.664        C    7 1.681    O    5 1.508    N    4 0.181    N    1 0.152
     7  C   3.943        N    6 1.681    C    2 0.948    H    9 0.935    O    5 0.292
     8  H   0.977        N    1 0.942
     9  H   0.993        C    7 0.935

molecular dipole:
                 x           y           z       tot (Debye)
 q only:       -0.628      -0.351       0.654
   full:       -0.886      -0.444       0.676       3.050
molecular quadrupole (traceless):
                xx          xy          yy          xz          yz          zz
 q only:       -5.218       0.826       3.522       5.008      -1.854       1.696
  q+dip:       -7.332       0.552       4.381       7.891      -1.442       2.951
   full:       -8.392       0.352       5.431       8.729      -0.958       2.961


           -------------------------------------------------
          | TOTAL ENERGY              -20.831922442809 Eh   |
          | GRADIENT NORM               0.087482342960 Eh/α |
          | HOMO-LUMO GAP               0.255928987899 eV   |
           -------------------------------------------------

------------------------------------------------------------------------
 * finished run on 2021/06/02 at 10:00:07.753     
------------------------------------------------------------------------
 total:
 * wall-time:     0 d,  0 h,  0 min,  0.017 sec
 *  cpu-time:     0 d,  0 h,  0 min,  0.017 sec
 * ratio c/w:     0.988 speedup
 SCF:
 * wall-time:     0 d,  0 h,  0 min,  0.009 sec
 *  cpu-time:     0 d,  0 h,  0 min,  0.009 sec
 * ratio c/w:     1.000 speedup

