      -----------------------------------------------------------      
     |                   =====================                   |     
     |                           x T B                           |     
     |                   =====================                   |     
     |                         S. Grimme                         |     
     |          Mulliken Center for Theoretical Chemistry        |     
     |                    University of Bonn                     |     
     |                 Version 6.1.4 (SAW190525)                 |     
      -----------------------------------------------------------      

   This program is distributed in the hope that it will be useful,
   but WITHOUT ANY WARRANTY; without even the implied warranty of
   MERCHANTABILITY or FITNESS FOR A PARTICULAR PURPOSE.
   
   FOR NON-COMMERCIAL, ACADEMIA USE ONLY.
   
   Cite this work as:
   S. Grimme, C. Bannwarth, P. Shushkov, J. Comput. Theory Chem., 2017,
   13, 1989-2009. DOI: 10.1021/acs.jctc.7b00118
   C. Bannwarth, S. Ehlert and S. Grimme., J. Comput. Theory Chem., 2019,
   just accepted. DOI: 10.1021/acs.jctc.8b01176
   
   for sTDA-xTB:
   S. Grimme and C. Bannwarth, J. Chem. Phys., 2016, 145, 054103.
   DOI: 10.1063/1.4959605
   
   in the mass-spec context:
   V. Asgeirsson, C. Bauer and S. Grimme, Chem. Sci., 2017, 8, 4879.
   DOI: 10.1039/c7sc00601b
   
   for metadynamics refer to:
   S. Grimme, J. Chem. Theory Comput. Article ASAP, 2019,
   DOI: 10.1021/acs.jctc.9b00143
   
   with help from (in alphabetical order)
   C. Bannwarth, F. Bohle, G. Brandenburg, E. Caldeweyher, M. Checinski,
   S. Dohm, S. Ehlert, S. Ehrlich, F. März, H. Neugebauer, J. Pisarek,
   P. Pracht, P. Shushkov, and S. Spicher.
   
 * started run on 2021/06/02 at 10:00:08.131     

           -------------------------------------------------
          |                Calculation Setup                |
           -------------------------------------------------

          program call               : /groups/kemi/koerstz/opt/xtb/6.1/bin/xtb 47.xyz --gfn2 --acc 0.2 --chrg 0
          hostname                   : node305
          coordinate file            : 47.xyz
          omp threads                :                     1
          number of atoms            :                     9
          number of electrons        :                    36
          charge                     :                     0
          spin                       :                   0.0
          first test random number   :      0.12829997525806


########################################################################
# WARNING! Please study the warnings concerning your input carefully
#  - XTBPATH is not set, using XTBHOME instead
########################################################################

           ------------------------------------------------- 
          |                 G F N 2 - x T B                 |
          | Geometry, Frequencies, Noncovalent interactions |
          |            JCTC 2018 parametrisation            |
           ------------------------------------------------- 
             k(s)              :                1.8500
             k(p)              :                2.2300
             k(d)              :                2.2300
             k(f)              :                2.0000
             kEN (H0ij)        :               -2.0000
             D4 a1             :                0.5200
             D4 a2             :                5.0000
             D4 s6             :                1.0000
             D4 s8             :                2.7000
             D4 s9             :                5.0000
             alphaj            :                2.0000

  Z AO/shell   Hii/eV     exponent
  1     Wed Apr 25 08:07:45 CEST 2018   EN: 2.200 GM2: 0.406  GM3: 0.0800  RAES: 1.40
     1s    -10.707211    1.230000
  6     Wed Apr 25 08:07:45 CEST 2018   EN: 2.550 GM2: 0.538  GM3: 0.1500  RAES: 3.00
     2s    -13.970922    2.096432
     2p    -10.063292    1.800000
  7     Wed Apr 25 08:07:45 CEST 2018   EN: 3.040 GM2: 0.461  GM3:-0.0640  RAES: 1.90
     2s    -16.686243    2.339881
     2p    -12.523956    2.014332
  8     Wed Apr 25 08:07:45 CEST 2018   EN: 3.440 GM2: 0.452  GM3:-0.0517  RAES: 1.80
     2s    -20.229985    2.439742
     2p    -15.503117    2.137023


            Z     q(EN)     CN     RAES       Cart. coordinates
     1  N   5.0   -0.41    2.01    1.90    -0.70801    -0.10791    -2.30552
     2  C   4.0    0.31    3.01    3.02    -0.80099    -1.39015    -0.24724
     3  N   5.0   -0.15    2.02    1.90    -2.97339    -2.31122     0.63405
     4  N   5.0   -0.15    1.01    1.90    -4.83214    -2.39322     1.65977
     5  O   6.0   -0.09    1.00    1.80     5.34517    -2.26923    -1.36978
     6  N   5.0   -0.16    2.00    1.90     3.61489    -2.61414     0.05376
     7  C   4.0    0.14    3.01    3.02     1.47939    -2.46017     1.02278
     8  H   1.0    0.32    1.00    1.43    -2.38194     0.03613    -3.28444
     9  H   1.0    0.18    0.99    1.43     1.21180    -3.14229     2.93395

           ------------------------------------------------- 
          |        Self-Consistent Charge Iterations        |
           ------------------------------------------------- 
q/qsh data taken from xtbrestart
CAMM data taken from xtbrestart

          ...................................................
          :                      SETUP                      :
          :.................................................:
          :  # basis functions                  30          :
          :  # atomic orbitals                  30          :
          :  # shells                           16          :
          :  # electrons                        36          :
          :  max. iterations                   250          :
          :  Hamiltonian                  GFN2-xTB          :
          :  restarted?                       true          :
          :  GBSA solvation                  false          :
          :  PC potential                    false          :
          :  electronic temp.          300.0000000     K    :
          :  accuracy                    0.2000000          :
          :  -> integral cutoff          0.3198970E+02      :
          :  -> integral neglect         0.2000000E-08      :
          :  -> SCF convergence          0.2000000E-06 Eh   :
          :  -> wf. convergence          0.2000000E-04 e    :
          :  Broyden damping             0.4000000          :
          ...................................................

 iter      E             dE          RMSdq      gap      omega  full diag
   1    -20.9005593 -0.209006E+02  0.405E+00    0.48       0.0  T
   2    -20.6753023  0.225257E+00  0.654E+00    1.72       1.0  T
   3    -20.9069440 -0.231642E+00  0.395E+00    1.00       1.0  T
   4    -21.0559630 -0.149019E+00  0.179E+00    0.33       1.0  T
   5    -21.0879778 -0.320148E-01  0.550E-01    0.27       1.0  T
   6    -21.0801397  0.783809E-02  0.823E-01    0.28       1.0  T
   7    -21.0729421  0.719759E-02  0.109E+00    0.25       1.0  T
   8    -21.0884367 -0.154946E-01  0.256E-01    0.26       1.0  T
   9    -21.0882856  0.151114E-03  0.264E-01    0.25       1.0  T
  10    -21.0891273 -0.841793E-03  0.818E-02    0.25       1.0  T
  11    -21.0891827 -0.553380E-04  0.543E-02    0.25       1.0  T
  12    -21.0892067 -0.240595E-04  0.333E-02    0.25       1.0  T
  13    -21.0892172 -0.104154E-04  0.179E-02    0.25       1.9  T
  14    -21.0892197 -0.255197E-05  0.114E-02    0.25       2.9  T
  15    -21.0892215 -0.174078E-05  0.559E-04    0.25      59.6  T
  16    -21.0892214  0.217000E-07  0.139E-03    0.25      23.9  T
  17    -21.0892215 -0.249742E-07  0.291E-04    0.25     114.6  T
  18    -21.0892215 -0.113263E-08  0.146E-05    0.25    2285.7  T
  19    -21.0892215  0.369837E-11  0.208E-05    0.25    1601.9  T

   *** convergence criteria satisfied after 19 iterations ***

         #    Occupation            Energy/Eh            Energy/eV
      -------------------------------------------------------------
         1        2.0000           -0.7528377             -20.4858
       ...           ...                  ...                  ...
        12        2.0000           -0.5479779             -14.9112
        13        2.0000           -0.5178077             -14.0903
        14        2.0000           -0.5082524             -13.8303
        15        2.0000           -0.4910905             -13.3633
        16        2.0000           -0.4336664             -11.8007
        17        2.0000           -0.4217850             -11.4774
        18        1.9853           -0.3568829              -9.7113 (HOMO)
        19        0.0147           -0.3475643              -9.4577 (LUMO)
        20                         -0.3180000              -8.6532
        21                         -0.2779808              -7.5642
        22                         -0.1842500              -5.0137
        23                          0.0194847               0.5302
       ...                                ...                  ...
        30                          0.9014457              24.5296
      -------------------------------------------------------------
                  HL-Gap            0.0093185 Eh            0.2536 eV
             Fermi-level           -0.3522236 Eh           -9.5845 eV

 SCC (total)                   0 d,  0 h,  0 min,  0.009 sec
 SCC setup                      ...        0 min,  0.000 sec (  1.435%)
 Dispersion                     ...        0 min,  0.000 sec (  0.624%)
 integral evaluation            ...        0 min,  0.001 sec ( 11.943%)
 zeroth order Hamiltonian       ...        0 min,  0.000 sec (  0.381%)
 iterations                     ...        0 min,  0.005 sec ( 60.520%)
 molecular gradient             ...        0 min,  0.002 sec ( 22.512%)
 printout                       ...        0 min,  0.000 sec (  2.199%)

         :::::::::::::::::::::::::::::::::::::::::::::::::::::
         ::                     SUMMARY                     ::
         :::::::::::::::::::::::::::::::::::::::::::::::::::::
         :: total energy              -20.832025433979 Eh   ::
         :: gradient norm               0.068641926505 Eh/α ::
         :: HOMO-LUMO gap               0.253570148695 eV   ::
         ::.................................................::
         :: SCC energy                -21.089221454604 Eh   ::
         :: -> isotropic ES             0.025507383314 Eh   ::
         :: -> anisotropic ES           0.004813044494 Eh   ::
         :: -> anisotropic XC           0.026325567084 Eh   ::
         :: -> dispersion              -0.005603911443 Eh   ::
         :: repulsion energy            0.257193831161 Eh   ::
         :: add. restraining            0.000000000000 Eh   ::
         :::::::::::::::::::::::::::::::::::::::::::::::::::::

           -------------------------------------------------
          |                Property Printout                |
           -------------------------------------------------

    * Orbital Energies and Occupations

         #    Occupation            Energy/Eh            Energy/eV
      -------------------------------------------------------------
         1        2.0000           -0.7528377             -20.4858
       ...           ...                  ...                  ...
         6        2.0000           -0.6352573             -17.2862
         7        2.0000           -0.6096087             -16.5883
         8        2.0000           -0.6021099             -16.3842
         9        2.0000           -0.5981029             -16.2752
        10        2.0000           -0.5961445             -16.2219
        11        2.0000           -0.5723308             -15.5739
        12        2.0000           -0.5479779             -14.9112
        13        2.0000           -0.5178077             -14.0903
        14        2.0000           -0.5082524             -13.8303
        15        2.0000           -0.4910905             -13.3633
        16        2.0000           -0.4336664             -11.8007
        17        2.0000           -0.4217850             -11.4774
        18        1.9853           -0.3568829              -9.7113 (HOMO)
        19        0.0147           -0.3475643              -9.4577 (LUMO)
        20                         -0.3180000              -8.6532
        21                         -0.2779808              -7.5642
        22                         -0.1842500              -5.0137
        23                          0.0194847               0.5302
        24                          0.0602275               1.6389
        25                          0.1072613               2.9187
        26                          0.2020618               5.4984
        27                          0.2876898               7.8284
        28                          0.4789750              13.0336
        29                          0.7943913              21.6165
        30                          0.9014457              24.5296
      -------------------------------------------------------------
                  HL-Gap            0.0093185 Eh            0.2536 eV
             Fermi-level           -0.3522236 Eh           -9.5845 eV

   #   Z        covCN         q      C6AA      α(0)
   1   7 N      1.786    -0.319    29.089     7.988
   2   6 C      2.806     0.140    24.943     8.182
   3   7 N      1.915     0.128    19.673     6.576
   4   7 N      0.985    -0.112    23.061     6.906
   5   8 O      0.923    -0.243    18.761     5.809
   6   7 N      1.837     0.207    18.401     6.357
   7   6 C      2.827    -0.035    28.855     8.802
   8   1 H      0.859     0.153     1.384     1.843
   9   1 H      0.925     0.081     1.972     2.196

 Mol. C6AA /au·bohr⁶  :       1305.601616
 Mol. C8AA /au·bohr⁸  :      29839.008196
 Mol. α(0) /au        :         54.660083


Wiberg/Mayer (AO) data.
largest (>0.10) Wiberg bond orders for each atom
          total WBO             WBO to atom ...
     1  N   3.086        C    2 1.574    H    8 0.942    N    6 0.150    O    5 0.143    N    4 0.133    N    3 0.108
     2  C   3.927        N    1 1.574    N    3 1.154    C    7 0.945    N    4 0.154
     3  N   3.706        N    4 2.258    C    2 1.154    N    1 0.108
     4  N   2.783        N    3 2.258    N    6 0.185    C    2 0.154    N    1 0.133
     5  O   2.079        N    6 1.505    C    7 0.293    N    1 0.143
     6  N   3.671        C    7 1.689    O    5 1.505    N    4 0.185    N    1 0.150
     7  C   3.943        N    6 1.689    C    2 0.945    H    9 0.933    O    5 0.293
     8  H   0.977        N    1 0.942
     9  H   0.993        C    7 0.933

molecular dipole:
                 x           y           z       tot (Debye)
 q only:       -0.595      -0.341       0.641
   full:       -0.846      -0.436       0.662       2.947
molecular quadrupole (traceless):
                xx          xy          yy          xz          yz          zz
 q only:       -5.359       0.775       3.547       5.114      -1.852       1.811
  q+dip:       -7.468       0.499       4.395       7.992      -1.477       3.073
   full:       -8.522       0.291       5.458       8.845      -0.997       3.064


           -------------------------------------------------
          | TOTAL ENERGY              -20.832025433979 Eh   |
          | GRADIENT NORM               0.068641926505 Eh/α |
          | HOMO-LUMO GAP               0.253570148695 eV   |
           -------------------------------------------------

------------------------------------------------------------------------
 * finished run on 2021/06/02 at 10:00:08.148     
------------------------------------------------------------------------
 total:
 * wall-time:     0 d,  0 h,  0 min,  0.016 sec
 *  cpu-time:     0 d,  0 h,  0 min,  0.016 sec
 * ratio c/w:     0.988 speedup
 SCF:
 * wall-time:     0 d,  0 h,  0 min,  0.009 sec
 *  cpu-time:     0 d,  0 h,  0 min,  0.009 sec
 * ratio c/w:     1.000 speedup

