      -----------------------------------------------------------      
     |                   =====================                   |     
     |                           x T B                           |     
     |                   =====================                   |     
     |                         S. Grimme                         |     
     |          Mulliken Center for Theoretical Chemistry        |     
     |                    University of Bonn                     |     
     |                 Version 6.1.4 (SAW190525)                 |     
      -----------------------------------------------------------      

   This program is distributed in the hope that it will be useful,
   but WITHOUT ANY WARRANTY; without even the implied warranty of
   MERCHANTABILITY or FITNESS FOR A PARTICULAR PURPOSE.
   
   FOR NON-COMMERCIAL, ACADEMIA USE ONLY.
   
   Cite this work as:
   S. Grimme, C. Bannwarth, P. Shushkov, J. Comput. Theory Chem., 2017,
   13, 1989-2009. DOI: 10.1021/acs.jctc.7b00118
   C. Bannwarth, S. Ehlert and S. Grimme., J. Comput. Theory Chem., 2019,
   just accepted. DOI: 10.1021/acs.jctc.8b01176
   
   for sTDA-xTB:
   S. Grimme and C. Bannwarth, J. Chem. Phys., 2016, 145, 054103.
   DOI: 10.1063/1.4959605
   
   in the mass-spec context:
   V. Asgeirsson, C. Bauer and S. Grimme, Chem. Sci., 2017, 8, 4879.
   DOI: 10.1039/c7sc00601b
   
   for metadynamics refer to:
   S. Grimme, J. Chem. Theory Comput. Article ASAP, 2019,
   DOI: 10.1021/acs.jctc.9b00143
   
   with help from (in alphabetical order)
   C. Bannwarth, F. Bohle, G. Brandenburg, E. Caldeweyher, M. Checinski,
   S. Dohm, S. Ehlert, S. Ehrlich, F. März, H. Neugebauer, J. Pisarek,
   P. Pracht, P. Shushkov, and S. Spicher.
   
 * started run on 2021/06/02 at 10:00:08.176     

           -------------------------------------------------
          |                Calculation Setup                |
           -------------------------------------------------

          program call               : /groups/kemi/koerstz/opt/xtb/6.1/bin/xtb 5.xyz --gfn2 --acc 0.2 --chrg 0
          hostname                   : node305
          coordinate file            : 5.xyz
          omp threads                :                     1
          number of atoms            :                     9
          number of electrons        :                    36
          charge                     :                     0
          spin                       :                   0.0
          first test random number   :      0.46563848041895


########################################################################
# WARNING! Please study the warnings concerning your input carefully
#  - XTBPATH is not set, using XTBHOME instead
########################################################################

           ------------------------------------------------- 
          |                 G F N 2 - x T B                 |
          | Geometry, Frequencies, Noncovalent interactions |
          |            JCTC 2018 parametrisation            |
           ------------------------------------------------- 
             k(s)              :                1.8500
             k(p)              :                2.2300
             k(d)              :                2.2300
             k(f)              :                2.0000
             kEN (H0ij)        :               -2.0000
             D4 a1             :                0.5200
             D4 a2             :                5.0000
             D4 s6             :                1.0000
             D4 s8             :                2.7000
             D4 s9             :                5.0000
             alphaj            :                2.0000

  Z AO/shell   Hii/eV     exponent
  1     Wed Apr 25 08:07:45 CEST 2018   EN: 2.200 GM2: 0.406  GM3: 0.0800  RAES: 1.40
     1s    -10.707211    1.230000
  6     Wed Apr 25 08:07:45 CEST 2018   EN: 2.550 GM2: 0.538  GM3: 0.1500  RAES: 3.00
     2s    -13.970922    2.096432
     2p    -10.063292    1.800000
  7     Wed Apr 25 08:07:45 CEST 2018   EN: 3.040 GM2: 0.461  GM3:-0.0640  RAES: 1.90
     2s    -16.686243    2.339881
     2p    -12.523956    2.014332
  8     Wed Apr 25 08:07:45 CEST 2018   EN: 3.440 GM2: 0.452  GM3:-0.0517  RAES: 1.80
     2s    -20.229985    2.439742
     2p    -15.503117    2.137023


            Z     q(EN)     CN     RAES       Cart. coordinates
     1  N   5.0   -0.46    2.01    1.90    -1.40775     1.02142    -1.02703
     2  C   4.0    0.30    3.03    3.02    -0.31271    -0.96049    -0.29856
     3  N   5.0   -0.04    2.44    1.90    -1.31878    -3.43589    -0.80458
     4  N   5.0   -0.18    1.00    1.90    -3.05981    -4.39783    -1.60970
     5  O   6.0   -0.04    1.44    1.80     1.25039    -5.24436     0.59946
     6  N   5.0   -0.19    2.03    1.90     2.69785    -3.53601     1.45024
     7  C   4.0    0.12    3.04    3.02     2.01669    -1.22674     1.06523
     8  H   1.0    0.33    1.00    1.43    -3.05511     0.80082    -1.98585
     9  H   1.0    0.17    1.00    1.43     3.14401     0.32689     1.70812

           ------------------------------------------------- 
          |        Self-Consistent Charge Iterations        |
           ------------------------------------------------- 
q/qsh data taken from xtbrestart
CAMM data taken from xtbrestart

          ...................................................
          :                      SETUP                      :
          :.................................................:
          :  # basis functions                  30          :
          :  # atomic orbitals                  30          :
          :  # shells                           16          :
          :  # electrons                        36          :
          :  max. iterations                   250          :
          :  Hamiltonian                  GFN2-xTB          :
          :  restarted?                       true          :
          :  GBSA solvation                  false          :
          :  PC potential                    false          :
          :  electronic temp.          300.0000000     K    :
          :  accuracy                    0.2000000          :
          :  -> integral cutoff          0.3198970E+02      :
          :  -> integral neglect         0.2000000E-08      :
          :  -> SCF convergence          0.2000000E-06 Eh   :
          :  -> wf. convergence          0.2000000E-04 e    :
          :  Broyden damping             0.4000000          :
          ...................................................

 iter      E             dE          RMSdq      gap      omega  full diag
   1    -21.0641034 -0.210641E+02  0.658E+00    1.99       0.0  T
   2    -21.0816510 -0.175476E-01  0.368E+00    1.12       1.0  T
   3    -21.0615321  0.201188E-01  0.267E+00    1.29       1.0  T
   4    -21.0972584 -0.357263E-01  0.576E-01    0.74       1.0  T
   5    -21.0992054 -0.194696E-02  0.244E-01    0.79       1.0  T
   6    -21.0992302 -0.248073E-04  0.130E-01    0.76       1.0  T
   7    -21.0993108 -0.806695E-04  0.468E-02    0.77       1.0  T
   8    -21.0993168 -0.595680E-05  0.221E-02    0.77       1.5  T
   9    -21.0993176 -0.820930E-06  0.998E-03    0.77       3.3  T
  10    -21.0993179 -0.318702E-06  0.390E-03    0.77       8.5  T
  11    -21.0993180 -0.461913E-07  0.165E-03    0.77      20.2  T
  12    -21.0993180 -0.331151E-08  0.304E-04    0.77     109.5  T
  13    -21.0993180 -0.231921E-10  0.136E-04    0.77     245.4  T
  14    -21.0993180 -0.592522E-10  0.247E-05    0.77    1347.1  T

   *** convergence criteria satisfied after 14 iterations ***

         #    Occupation            Energy/Eh            Energy/eV
      -------------------------------------------------------------
         1        2.0000           -0.7586519             -20.6440
       ...           ...                  ...                  ...
        12        2.0000           -0.5400390             -14.6952
        13        2.0000           -0.5318545             -14.4725
        14        2.0000           -0.5023186             -13.6688
        15        2.0000           -0.4957729             -13.4907
        16        2.0000           -0.4557692             -12.4021
        17        2.0000           -0.4397268             -11.9656
        18        2.0000           -0.3978193             -10.8252 (HOMO)
        19        0.0000           -0.3695654             -10.0564 (LUMO)
        20                         -0.2939027              -7.9975
        21                         -0.2877022              -7.8288
        22                         -0.1993089              -5.4235
        23                         -0.0042228              -0.1149
       ...                                ...                  ...
        30                          0.7386994              20.1010
      -------------------------------------------------------------
                  HL-Gap            0.0282539 Eh            0.7688 eV
             Fermi-level           -0.3836923 Eh          -10.4408 eV

 SCC (total)                   0 d,  0 h,  0 min,  0.008 sec
 SCC setup                      ...        0 min,  0.000 sec (  1.667%)
 Dispersion                     ...        0 min,  0.000 sec (  0.756%)
 integral evaluation            ...        0 min,  0.001 sec ( 13.791%)
 zeroth order Hamiltonian       ...        0 min,  0.000 sec (  0.416%)
 iterations                     ...        0 min,  0.004 sec ( 55.125%)
 molecular gradient             ...        0 min,  0.002 sec ( 24.954%)
 printout                       ...        0 min,  0.000 sec (  2.857%)

         :::::::::::::::::::::::::::::::::::::::::::::::::::::
         ::                     SUMMARY                     ::
         :::::::::::::::::::::::::::::::::::::::::::::::::::::
         :: total energy              -20.867016535683 Eh   ::
         :: gradient norm               0.008659666023 Eh/α ::
         :: HOMO-LUMO gap               0.768828346586 eV   ::
         ::.................................................::
         :: SCC energy                -21.099317976259 Eh   ::
         :: -> isotropic ES             0.027810849471 Eh   ::
         :: -> anisotropic ES           0.003449963401 Eh   ::
         :: -> anisotropic XC           0.029894363744 Eh   ::
         :: -> dispersion              -0.006056571605 Eh   ::
         :: repulsion energy            0.232298303054 Eh   ::
         :: add. restraining            0.000000000000 Eh   ::
         :::::::::::::::::::::::::::::::::::::::::::::::::::::

           -------------------------------------------------
          |                Property Printout                |
           -------------------------------------------------

    * Orbital Energies and Occupations

         #    Occupation            Energy/Eh            Energy/eV
      -------------------------------------------------------------
         1        2.0000           -0.7586519             -20.6440
       ...           ...                  ...                  ...
         6        2.0000           -0.6530750             -17.7711
         7        2.0000           -0.6263294             -17.0433
         8        2.0000           -0.6157721             -16.7560
         9        2.0000           -0.5839566             -15.8903
        10        2.0000           -0.5788368             -15.7510
        11        2.0000           -0.5538190             -15.0702
        12        2.0000           -0.5400390             -14.6952
        13        2.0000           -0.5318545             -14.4725
        14        2.0000           -0.5023186             -13.6688
        15        2.0000           -0.4957729             -13.4907
        16        2.0000           -0.4557692             -12.4021
        17        2.0000           -0.4397268             -11.9656
        18        2.0000           -0.3978193             -10.8252 (HOMO)
        19        0.0000           -0.3695654             -10.0564 (LUMO)
        20                         -0.2939027              -7.9975
        21                         -0.2877022              -7.8288
        22                         -0.1993089              -5.4235
        23                         -0.0042228              -0.1149
        24                          0.0532500               1.4490
        25                          0.0919524               2.5022
        26                          0.2194801               5.9724
        27                          0.3169109               8.6236
        28                          0.4071106              11.0780
        29                          0.5463389              14.8666
        30                          0.7386994              20.1010
      -------------------------------------------------------------
                  HL-Gap            0.0282539 Eh            0.7688 eV
             Fermi-level           -0.3836923 Eh          -10.4408 eV

   #   Z        covCN         q      C6AA      α(0)
   1   7 N      1.778    -0.273    27.903     7.823
   2   6 C      2.829     0.163    24.469     8.106
   3   7 N      2.296     0.216    17.888     6.279
   4   7 N      0.985    -0.129    23.422     6.961
   5   8 O      1.331    -0.274    18.946     5.855
   6   7 N      1.861     0.035    21.299     6.840
   7   6 C      2.857    -0.002    28.060     8.682
   8   1 H      0.860     0.178     1.226     1.734
   9   1 H      0.926     0.084     1.935     2.176

 Mol. C6AA /au·bohr⁶  :       1295.704999
 Mol. C8AA /au·bohr⁸  :      29621.106481
 Mol. α(0) /au        :         54.455707


Wiberg/Mayer (AO) data.
largest (>0.10) Wiberg bond orders for each atom
          total WBO             WBO to atom ...
     1  N   3.105        C    2 1.782    H    8 0.936    N    4 0.122
     2  C   3.952        N    1 1.782    C    7 1.126    N    3 0.926
     3  N   3.782        N    4 2.311    C    2 0.926    O    5 0.370
     4  N   2.835        N    3 2.311    O    5 0.265    N    1 0.122
     5  O   2.269        N    6 1.318    N    3 0.370    N    4 0.265    C    7 0.178
     6  N   3.224        C    7 1.619    O    5 1.318
     7  C   3.968        N    6 1.619    C    2 1.126    H    9 0.959    O    5 0.178
     8  H   0.968        N    1 0.936
     9  H   0.993        C    7 0.959

molecular dipole:
                 x           y           z       tot (Debye)
 q only:       -0.085       0.871      -0.058
   full:       -0.240       0.874      -0.155       2.336
molecular quadrupole (traceless):
                xx          xy          yy          xz          yz          zz
 q only:        4.254       1.194      -7.749       1.015       0.693       3.495
  q+dip:        4.840       1.198     -10.105       0.334       0.885       5.265
   full:        4.377       0.988     -10.995      -1.074       0.877       6.618


           -------------------------------------------------
          | TOTAL ENERGY              -20.867016535683 Eh   |
          | GRADIENT NORM               0.008659666023 Eh/α |
          | HOMO-LUMO GAP               0.768828346586 eV   |
           -------------------------------------------------

------------------------------------------------------------------------
 * finished run on 2021/06/02 at 10:00:08.192     
------------------------------------------------------------------------
 total:
 * wall-time:     0 d,  0 h,  0 min,  0.015 sec
 *  cpu-time:     0 d,  0 h,  0 min,  0.015 sec
 * ratio c/w:     0.986 speedup
 SCF:
 * wall-time:     0 d,  0 h,  0 min,  0.008 sec
 *  cpu-time:     0 d,  0 h,  0 min,  0.008 sec
 * ratio c/w:     1.000 speedup

