      -----------------------------------------------------------      
     |                   =====================                   |     
     |                           x T B                           |     
     |                   =====================                   |     
     |                         S. Grimme                         |     
     |          Mulliken Center for Theoretical Chemistry        |     
     |                    University of Bonn                     |     
     |                 Version 6.1.4 (SAW190525)                 |     
      -----------------------------------------------------------      

   This program is distributed in the hope that it will be useful,
   but WITHOUT ANY WARRANTY; without even the implied warranty of
   MERCHANTABILITY or FITNESS FOR A PARTICULAR PURPOSE.
   
   FOR NON-COMMERCIAL, ACADEMIA USE ONLY.
   
   Cite this work as:
   S. Grimme, C. Bannwarth, P. Shushkov, J. Comput. Theory Chem., 2017,
   13, 1989-2009. DOI: 10.1021/acs.jctc.7b00118
   C. Bannwarth, S. Ehlert and S. Grimme., J. Comput. Theory Chem., 2019,
   just accepted. DOI: 10.1021/acs.jctc.8b01176
   
   for sTDA-xTB:
   S. Grimme and C. Bannwarth, J. Chem. Phys., 2016, 145, 054103.
   DOI: 10.1063/1.4959605
   
   in the mass-spec context:
   V. Asgeirsson, C. Bauer and S. Grimme, Chem. Sci., 2017, 8, 4879.
   DOI: 10.1039/c7sc00601b
   
   for metadynamics refer to:
   S. Grimme, J. Chem. Theory Comput. Article ASAP, 2019,
   DOI: 10.1021/acs.jctc.9b00143
   
   with help from (in alphabetical order)
   C. Bannwarth, F. Bohle, G. Brandenburg, E. Caldeweyher, M. Checinski,
   S. Dohm, S. Ehlert, S. Ehrlich, F. März, H. Neugebauer, J. Pisarek,
   P. Pracht, P. Shushkov, and S. Spicher.
   
 * started run on 2021/06/02 at 10:00:08.097     

           -------------------------------------------------
          |                Calculation Setup                |
           -------------------------------------------------

          program call               : /groups/kemi/koerstz/opt/xtb/6.1/bin/xtb 50.xyz --gfn2 --acc 0.2 --chrg 0
          hostname                   : node305
          coordinate file            : 50.xyz
          omp threads                :                     1
          number of atoms            :                     9
          number of electrons        :                    36
          charge                     :                     0
          spin                       :                   0.0
          first test random number   :      0.12829997525806


########################################################################
# WARNING! Please study the warnings concerning your input carefully
#  - XTBPATH is not set, using XTBHOME instead
########################################################################

           ------------------------------------------------- 
          |                 G F N 2 - x T B                 |
          | Geometry, Frequencies, Noncovalent interactions |
          |            JCTC 2018 parametrisation            |
           ------------------------------------------------- 
             k(s)              :                1.8500
             k(p)              :                2.2300
             k(d)              :                2.2300
             k(f)              :                2.0000
             kEN (H0ij)        :               -2.0000
             D4 a1             :                0.5200
             D4 a2             :                5.0000
             D4 s6             :                1.0000
             D4 s8             :                2.7000
             D4 s9             :                5.0000
             alphaj            :                2.0000

  Z AO/shell   Hii/eV     exponent
  1     Wed Apr 25 08:07:45 CEST 2018   EN: 2.200 GM2: 0.406  GM3: 0.0800  RAES: 1.40
     1s    -10.707211    1.230000
  6     Wed Apr 25 08:07:45 CEST 2018   EN: 2.550 GM2: 0.538  GM3: 0.1500  RAES: 3.00
     2s    -13.970922    2.096432
     2p    -10.063292    1.800000
  7     Wed Apr 25 08:07:45 CEST 2018   EN: 3.040 GM2: 0.461  GM3:-0.0640  RAES: 1.90
     2s    -16.686243    2.339881
     2p    -12.523956    2.014332
  8     Wed Apr 25 08:07:45 CEST 2018   EN: 3.440 GM2: 0.452  GM3:-0.0517  RAES: 1.80
     2s    -20.229985    2.439742
     2p    -15.503117    2.137023


            Z     q(EN)     CN     RAES       Cart. coordinates
     1  N   5.0   -0.42    2.02    1.90    -1.00249    -0.26284    -2.39878
     2  C   4.0    0.31    3.02    3.02    -0.81885    -1.57511    -0.35779
     3  N   5.0   -0.15    2.03    1.90    -2.90131    -2.16236     0.94043
     4  N   5.0   -0.15    1.00    1.90    -4.97344    -2.49345     1.42342
     5  O   6.0   -0.11    1.00    1.80     5.76307    -2.73667    -0.30019
     6  N   5.0   -0.14    2.01    1.90     3.52284    -2.41980    -0.68187
     7  C   4.0    0.13    3.01    3.02     1.57070    -2.32830     0.73278
     8  H   1.0    0.33    1.00    1.43    -2.75209     0.28753    -2.95064
     9  H   1.0    0.18    0.99    1.43     1.54637    -2.96119     2.68996

           ------------------------------------------------- 
          |        Self-Consistent Charge Iterations        |
           ------------------------------------------------- 
q/qsh data taken from xtbrestart
CAMM data taken from xtbrestart

          ...................................................
          :                      SETUP                      :
          :.................................................:
          :  # basis functions                  30          :
          :  # atomic orbitals                  30          :
          :  # shells                           16          :
          :  # electrons                        36          :
          :  max. iterations                   250          :
          :  Hamiltonian                  GFN2-xTB          :
          :  restarted?                       true          :
          :  GBSA solvation                  false          :
          :  PC potential                    false          :
          :  electronic temp.          300.0000000     K    :
          :  accuracy                    0.2000000          :
          :  -> integral cutoff          0.3198970E+02      :
          :  -> integral neglect         0.2000000E-08      :
          :  -> SCF convergence          0.2000000E-06 Eh   :
          :  -> wf. convergence          0.2000000E-04 e    :
          :  Broyden damping             0.4000000          :
          ...................................................

 iter      E             dE          RMSdq      gap      omega  full diag
   1    -20.9577309 -0.209577E+02  0.495E+00    0.44       0.0  T
   2    -18.7657816  0.219195E+01  0.118E+01    0.41       1.0  T
   3    -20.9347076 -0.216893E+01  0.383E+00    0.64       1.0  T
   4    -21.0362275 -0.101520E+00  0.195E+00    0.21       1.0  T
   5    -21.0412265 -0.499899E-02  0.166E+00    0.19       1.0  T
   6    -20.9726375  0.685890E-01  0.328E+00    0.18       1.0  T
   7    -20.8422953  0.130342E+00  0.478E+00    0.30       1.0  T
   8    -20.8840034 -0.417081E-01  0.433E+00    0.23       1.0  T
   9    -21.0297885 -0.145785E+00  0.171E+00    0.18       1.0  T
  10    -21.0748844 -0.450959E-01  0.482E-01    0.13       1.0  T
  11    -21.0481250  0.267594E-01  0.137E+00    0.16       1.0  T
  12    -21.0334726  0.146523E-01  0.172E+00    0.17       1.0  T
  13    -21.0625674 -0.290948E-01  0.937E-01    0.15       1.0  T
  14    -21.0748482 -0.122808E-01  0.195E-01    0.14       1.0  T
  15    -21.0715339  0.331434E-02  0.533E-01    0.14       1.0  T
  16    -21.0746289 -0.309497E-02  0.228E-01    0.14       1.0  T
  17    -21.0752428 -0.613944E-03  0.677E-02    0.14       1.0  T
  18    -21.0752103  0.324863E-04  0.803E-02    0.14       1.0  T
  19    -21.0752723 -0.619548E-04  0.395E-02    0.14       1.0  T
  20    -21.0752928 -0.205611E-04  0.262E-03    0.14      12.7  T
  21    -21.0752913  0.158025E-05  0.109E-02    0.14       3.1  T
  22    -21.0752928 -0.159053E-05  0.326E-04    0.14     102.4  T
  23    -21.0752928  0.177154E-07  0.121E-03    0.14      27.6  T
  24    -21.0752928 -0.176012E-07  0.291E-04    0.14     114.4  T
  25    -21.0752928 -0.436120E-09  0.229E-04    0.14     145.3  T
  26    -21.0752928 -0.708088E-09  0.179E-05    0.14    1866.5  T
  27    -21.0752928 -0.338574E-11  0.419E-06    0.14    7953.2  T

   *** convergence criteria satisfied after 27 iterations ***

         #    Occupation            Energy/Eh            Energy/eV
      -------------------------------------------------------------
         1        2.0000           -0.7529019             -20.4875
       ...           ...                  ...                  ...
        12        2.0000           -0.5502952             -14.9743
        13        2.0000           -0.5261436             -14.3171
        14        2.0000           -0.5081120             -13.8264
        15        2.0000           -0.5025318             -13.6746
        16        2.0000           -0.4335547             -11.7976
        17        2.0000           -0.4242210             -11.5436
        18        1.8673           -0.3666181              -9.9762 (HOMO)
        19        0.1327           -0.3615945              -9.8395 (LUMO)
        20                         -0.3458271              -9.4104
        21                         -0.2825734              -7.6892
        22                         -0.1845827              -5.0228
        23                          0.0268798               0.7314
       ...                                ...                  ...
        30                          0.8352820              22.7292
      -------------------------------------------------------------
                  HL-Gap            0.0050235 Eh            0.1367 eV
             Fermi-level           -0.3641063 Eh           -9.9078 eV

 SCC (total)                   0 d,  0 h,  0 min,  0.010 sec
 SCC setup                      ...        0 min,  0.000 sec (  1.266%)
 Dispersion                     ...        0 min,  0.000 sec (  0.564%)
 integral evaluation            ...        0 min,  0.001 sec ( 10.148%)
 zeroth order Hamiltonian       ...        0 min,  0.000 sec (  0.297%)
 iterations                     ...        0 min,  0.007 sec ( 67.142%)
 molecular gradient             ...        0 min,  0.002 sec ( 18.595%)
 printout                       ...        0 min,  0.000 sec (  1.613%)

         :::::::::::::::::::::::::::::::::::::::::::::::::::::
         ::                     SUMMARY                     ::
         :::::::::::::::::::::::::::::::::::::::::::::::::::::
         :: total energy              -20.832861134842 Eh   ::
         :: gradient norm               0.008986311243 Eh/α ::
         :: HOMO-LUMO gap               0.136697400879 eV   ::
         ::.................................................::
         :: SCC energy                -21.075292848887 Eh   ::
         :: -> isotropic ES             0.027113449718 Eh   ::
         :: -> anisotropic ES           0.003975297683 Eh   ::
         :: -> anisotropic XC           0.024493858353 Eh   ::
         :: -> dispersion              -0.005511902360 Eh   ::
         :: repulsion energy            0.242430903570 Eh   ::
         :: add. restraining            0.000000000000 Eh   ::
         :::::::::::::::::::::::::::::::::::::::::::::::::::::

           -------------------------------------------------
          |                Property Printout                |
           -------------------------------------------------

    * Orbital Energies and Occupations

         #    Occupation            Energy/Eh            Energy/eV
      -------------------------------------------------------------
         1        2.0000           -0.7529019             -20.4875
       ...           ...                  ...                  ...
         6        2.0000           -0.6324094             -17.2087
         7        2.0000           -0.6176607             -16.8074
         8        2.0000           -0.6041712             -16.4403
         9        2.0000           -0.5927092             -16.1284
        10        2.0000           -0.5844943             -15.9049
        11        2.0000           -0.5656399             -15.3918
        12        2.0000           -0.5502952             -14.9743
        13        2.0000           -0.5261436             -14.3171
        14        2.0000           -0.5081120             -13.8264
        15        2.0000           -0.5025318             -13.6746
        16        2.0000           -0.4335547             -11.7976
        17        2.0000           -0.4242210             -11.5436
        18        1.8673           -0.3666181              -9.9762 (HOMO)
        19        0.1327           -0.3615945              -9.8395 (LUMO)
        20                         -0.3458271              -9.4104
        21                         -0.2825734              -7.6892
        22                         -0.1845827              -5.0228
        23                          0.0268798               0.7314
        24                          0.0508455               1.3836
        25                          0.1662421               4.5237
        26                          0.2003660               5.4522
        27                          0.3309901               9.0067
        28                          0.4569370              12.4339
        29                          0.5996093              16.3162
        30                          0.8352820              22.7292
      -------------------------------------------------------------
                  HL-Gap            0.0050235 Eh            0.1367 eV
             Fermi-level           -0.3641063 Eh           -9.9078 eV

   #   Z        covCN         q      C6AA      α(0)
   1   7 N      1.794    -0.301    28.642     7.927
   2   6 C      2.816     0.151    24.714     8.145
   3   7 N      1.918     0.137    19.522     6.551
   4   7 N      0.984    -0.086    22.555     6.831
   5   8 O      0.927    -0.272    19.248     5.884
   6   7 N      1.847     0.169    19.008     6.461
   7   6 C      2.833    -0.029    28.718     8.782
   8   1 H      0.860     0.159     1.342     1.815
   9   1 H      0.925     0.072     2.063     2.246

 Mol. C6AA /au·bohr⁶  :       1305.040475
 Mol. C8AA /au·bohr⁸  :      29808.192605
 Mol. α(0) /au        :         54.642300


Wiberg/Mayer (AO) data.
largest (>0.10) Wiberg bond orders for each atom
          total WBO             WBO to atom ...
     1  N   3.087        C    2 1.528    H    8 0.945    N    4 0.174    O    5 0.126    N    3 0.125    N    6 0.116
     2  C   3.933        N    1 1.528    N    3 1.129    C    7 1.088    N    4 0.111
     3  N   3.684        N    4 2.270    C    2 1.129    N    1 0.125
     4  N   2.756        N    3 2.270    N    1 0.174    N    6 0.142    C    2 0.111
     5  O   1.969        N    6 1.493    C    7 0.236    N    1 0.126
     6  N   3.437        C    7 1.579    O    5 1.493    N    4 0.142    N    1 0.116
     7  C   3.942        N    6 1.579    C    2 1.088    H    9 0.916    O    5 0.236
     8  H   0.975        N    1 0.945
     9  H   0.981        C    7 0.916

molecular dipole:
                 x           y           z       tot (Debye)
 q only:       -1.133      -0.006       0.346
   full:       -1.356      -0.036       0.605       3.775
molecular quadrupole (traceless):
                xx          xy          yy          xz          yz          zz
 q only:       -6.832       3.605       3.212       1.761      -1.023       3.620
  q+dip:       -9.205       3.108       4.511       4.489      -1.767       4.694
   full:      -10.334       3.033       5.735       5.052      -1.435       4.599


           -------------------------------------------------
          | TOTAL ENERGY              -20.832861134842 Eh   |
          | GRADIENT NORM               0.008986311243 Eh/α |
          | HOMO-LUMO GAP               0.136697400879 eV   |
           -------------------------------------------------

------------------------------------------------------------------------
 * finished run on 2021/06/02 at 10:00:08.126     
------------------------------------------------------------------------
 total:
 * wall-time:     0 d,  0 h,  0 min,  0.029 sec
 *  cpu-time:     0 d,  0 h,  0 min,  0.018 sec
 * ratio c/w:     0.638 speedup
 SCF:
 * wall-time:     0 d,  0 h,  0 min,  0.010 sec
 *  cpu-time:     0 d,  0 h,  0 min,  0.010 sec
 * ratio c/w:     1.000 speedup

