      -----------------------------------------------------------      
     |                   =====================                   |     
     |                           x T B                           |     
     |                   =====================                   |     
     |                         S. Grimme                         |     
     |          Mulliken Center for Theoretical Chemistry        |     
     |                    University of Bonn                     |     
     |                 Version 6.1.4 (SAW190525)                 |     
      -----------------------------------------------------------      

   This program is distributed in the hope that it will be useful,
   but WITHOUT ANY WARRANTY; without even the implied warranty of
   MERCHANTABILITY or FITNESS FOR A PARTICULAR PURPOSE.
   
   FOR NON-COMMERCIAL, ACADEMIA USE ONLY.
   
   Cite this work as:
   S. Grimme, C. Bannwarth, P. Shushkov, J. Comput. Theory Chem., 2017,
   13, 1989-2009. DOI: 10.1021/acs.jctc.7b00118
   C. Bannwarth, S. Ehlert and S. Grimme., J. Comput. Theory Chem., 2019,
   just accepted. DOI: 10.1021/acs.jctc.8b01176
   
   for sTDA-xTB:
   S. Grimme and C. Bannwarth, J. Chem. Phys., 2016, 145, 054103.
   DOI: 10.1063/1.4959605
   
   in the mass-spec context:
   V. Asgeirsson, C. Bauer and S. Grimme, Chem. Sci., 2017, 8, 4879.
   DOI: 10.1039/c7sc00601b
   
   for metadynamics refer to:
   S. Grimme, J. Chem. Theory Comput. Article ASAP, 2019,
   DOI: 10.1021/acs.jctc.9b00143
   
   with help from (in alphabetical order)
   C. Bannwarth, F. Bohle, G. Brandenburg, E. Caldeweyher, M. Checinski,
   S. Dohm, S. Ehlert, S. Ehrlich, F. März, H. Neugebauer, J. Pisarek,
   P. Pracht, P. Shushkov, and S. Spicher.
   
 * started run on 2021/06/02 at 10:00:07.429     

           -------------------------------------------------
          |                Calculation Setup                |
           -------------------------------------------------

          program call               : /groups/kemi/koerstz/opt/xtb/6.1/bin/xtb 51.xyz --gfn2 --acc 0.2 --chrg 0
          hostname                   : node305
          coordinate file            : 51.xyz
          omp threads                :                     1
          number of atoms            :                     9
          number of electrons        :                    36
          charge                     :                     0
          spin                       :                   0.0
          first test random number   :      0.19527125107034


########################################################################
# WARNING! Please study the warnings concerning your input carefully
#  - XTBPATH is not set, using XTBHOME instead
########################################################################

           ------------------------------------------------- 
          |                 G F N 2 - x T B                 |
          | Geometry, Frequencies, Noncovalent interactions |
          |            JCTC 2018 parametrisation            |
           ------------------------------------------------- 
             k(s)              :                1.8500
             k(p)              :                2.2300
             k(d)              :                2.2300
             k(f)              :                2.0000
             kEN (H0ij)        :               -2.0000
             D4 a1             :                0.5200
             D4 a2             :                5.0000
             D4 s6             :                1.0000
             D4 s8             :                2.7000
             D4 s9             :                5.0000
             alphaj            :                2.0000

  Z AO/shell   Hii/eV     exponent
  1     Wed Apr 25 08:07:45 CEST 2018   EN: 2.200 GM2: 0.406  GM3: 0.0800  RAES: 1.40
     1s    -10.707211    1.230000
  6     Wed Apr 25 08:07:45 CEST 2018   EN: 2.550 GM2: 0.538  GM3: 0.1500  RAES: 3.00
     2s    -13.970922    2.096432
     2p    -10.063292    1.800000
  7     Wed Apr 25 08:07:45 CEST 2018   EN: 3.040 GM2: 0.461  GM3:-0.0640  RAES: 1.90
     2s    -16.686243    2.339881
     2p    -12.523956    2.014332
  8     Wed Apr 25 08:07:45 CEST 2018   EN: 3.440 GM2: 0.452  GM3:-0.0517  RAES: 1.80
     2s    -20.229985    2.439742
     2p    -15.503117    2.137023


            Z     q(EN)     CN     RAES       Cart. coordinates
     1  N   5.0   -0.42    2.02    1.90    -0.97965    -0.27148    -2.40170
     2  C   4.0    0.32    3.02    3.02    -0.82899    -1.60266    -0.37479
     3  N   5.0   -0.15    2.03    1.90    -2.90266    -2.11485     0.96796
     4  N   5.0   -0.15    1.00    1.90    -4.96552    -2.57590     1.36268
     5  O   6.0   -0.10    1.00    1.80     5.78790    -2.71365    -0.45227
     6  N   5.0   -0.14    2.01    1.90     3.51299    -2.48366    -0.59484
     7  C   4.0    0.14    3.01    3.02     1.55873    -2.34197     0.76413
     8  H   1.0    0.33    1.00    1.43    -2.71284     0.33715    -2.92648
     9  H   1.0    0.18    0.99    1.43     1.48482    -2.88516     2.75262

           ------------------------------------------------- 
          |        Self-Consistent Charge Iterations        |
           ------------------------------------------------- 
q/qsh data taken from xtbrestart
CAMM data taken from xtbrestart

          ...................................................
          :                      SETUP                      :
          :.................................................:
          :  # basis functions                  30          :
          :  # atomic orbitals                  30          :
          :  # shells                           16          :
          :  # electrons                        36          :
          :  max. iterations                   250          :
          :  Hamiltonian                  GFN2-xTB          :
          :  restarted?                       true          :
          :  GBSA solvation                  false          :
          :  PC potential                    false          :
          :  electronic temp.          300.0000000     K    :
          :  accuracy                    0.2000000          :
          :  -> integral cutoff          0.3198970E+02      :
          :  -> integral neglect         0.2000000E-08      :
          :  -> SCF convergence          0.2000000E-06 Eh   :
          :  -> wf. convergence          0.2000000E-04 e    :
          :  Broyden damping             0.4000000          :
          ...................................................

 iter      E             dE          RMSdq      gap      omega  full diag
   1    -20.5767006 -0.205767E+02  0.806E+00    0.54       0.0  T
   2    -20.5701258  0.657481E-02  0.879E+00    1.54       1.0  T
   3    -20.8723472 -0.302221E+00  0.534E+00    1.49       1.0  T
   4    -20.6807564  0.191591E+00  0.555E+00    0.37       1.0  T
   5    -21.0743549 -0.393598E+00  0.111E+00    0.19       1.0  T
   6    -21.0070321  0.673228E-01  0.243E+00    0.24       1.0  T
   7    -20.8377506  0.169281E+00  0.433E+00    0.42       1.0  T
   8    -21.0756288 -0.237878E+00  0.634E-01    0.17       1.0  T
   9    -21.0721528  0.347600E-02  0.750E-01    0.16       1.0  T
  10    -21.0353047  0.368481E-01  0.183E+00    0.20       1.0  T
  11    -21.0793927 -0.440880E-01  0.172E-01    0.16       1.0  T
  12    -21.0767740  0.261861E-02  0.467E-01    0.16       1.0  T
  13    -21.0796098 -0.283577E-02  0.716E-02    0.16       1.0  T
  14    -21.0793073  0.302525E-03  0.164E-01    0.16       1.0  T
  15    -21.0795478 -0.240480E-03  0.928E-02    0.16       1.0  T
  16    -21.0796497 -0.101981E-03  0.302E-02    0.16       1.1  T
  17    -21.0796572 -0.749178E-05  0.182E-02    0.16       1.8  T
  18    -21.0796616 -0.434188E-05  0.510E-04    0.16      65.3  T
  19    -21.0796616  0.277184E-08  0.681E-04    0.16      48.9  T
  20    -21.0796616 -0.522078E-08  0.242E-04    0.16     137.7  T
  21    -21.0796616 -0.762117E-09  0.104E-05    0.16    3212.6  T
  22    -21.0796616  0.671108E-11  0.238E-05    0.16    1398.6  T

   *** convergence criteria satisfied after 22 iterations ***

         #    Occupation            Energy/Eh            Energy/eV
      -------------------------------------------------------------
         1        2.0000           -0.7487683             -20.3750
       ...           ...                  ...                  ...
        12        2.0000           -0.5526207             -15.0376
        13        2.0000           -0.5209809             -14.1766
        14        2.0000           -0.5058359             -13.7645
        15        2.0000           -0.5047265             -13.7343
        16        2.0000           -0.4312018             -11.7336
        17        2.0000           -0.4278367             -11.6420
        18        1.9080           -0.3627931              -9.8721 (HOMO)
        19        0.0920           -0.3570311              -9.7153 (LUMO)
        20                         -0.3402588              -9.2589
        21                         -0.2805456              -7.6340
        22                         -0.1852577              -5.0411
        23                          0.0253362               0.6894
       ...                                ...                  ...
        30                          0.8403175              22.8662
      -------------------------------------------------------------
                  HL-Gap            0.0057620 Eh            0.1568 eV
             Fermi-level           -0.3599121 Eh           -9.7937 eV

 SCC (total)                   0 d,  0 h,  0 min,  0.010 sec
 SCC setup                      ...        0 min,  0.000 sec (  1.384%)
 Dispersion                     ...        0 min,  0.000 sec (  0.678%)
 integral evaluation            ...        0 min,  0.001 sec ( 13.277%)
 zeroth order Hamiltonian       ...        0 min,  0.000 sec (  0.350%)
 iterations                     ...        0 min,  0.006 sec ( 61.898%)
 molecular gradient             ...        0 min,  0.002 sec ( 20.026%)
 printout                       ...        0 min,  0.000 sec (  1.979%)

         :::::::::::::::::::::::::::::::::::::::::::::::::::::
         ::                     SUMMARY                     ::
         :::::::::::::::::::::::::::::::::::::::::::::::::::::
         :: total energy              -20.832170587716 Eh   ::
         :: gradient norm               0.014692457090 Eh/α ::
         :: HOMO-LUMO gap               0.156791192015 eV   ::
         ::.................................................::
         :: SCC energy                -21.079661575333 Eh   ::
         :: -> isotropic ES             0.026618600283 Eh   ::
         :: -> anisotropic ES           0.004119610729 Eh   ::
         :: -> anisotropic XC           0.024413221441 Eh   ::
         :: -> dispersion              -0.005510770615 Eh   ::
         :: repulsion energy            0.247490148288 Eh   ::
         :: add. restraining            0.000000000000 Eh   ::
         :::::::::::::::::::::::::::::::::::::::::::::::::::::

           -------------------------------------------------
          |                Property Printout                |
           -------------------------------------------------

    * Orbital Energies and Occupations

         #    Occupation            Energy/Eh            Energy/eV
      -------------------------------------------------------------
         1        2.0000           -0.7487683             -20.3750
       ...           ...                  ...                  ...
         6        2.0000           -0.6326385             -17.2150
         7        2.0000           -0.6132835             -16.6883
         8        2.0000           -0.6055591             -16.4781
         9        2.0000           -0.5928087             -16.1311
        10        2.0000           -0.5877683             -15.9940
        11        2.0000           -0.5680344             -15.4570
        12        2.0000           -0.5526207             -15.0376
        13        2.0000           -0.5209809             -14.1766
        14        2.0000           -0.5058359             -13.7645
        15        2.0000           -0.5047265             -13.7343
        16        2.0000           -0.4312018             -11.7336
        17        2.0000           -0.4278367             -11.6420
        18        1.9080           -0.3627931              -9.8721 (HOMO)
        19        0.0920           -0.3570311              -9.7153 (LUMO)
        20                         -0.3402588              -9.2589
        21                         -0.2805456              -7.6340
        22                         -0.1852577              -5.0411
        23                          0.0253362               0.6894
        24                          0.0577350               1.5710
        25                          0.1674307               4.5560
        26                          0.1866326               5.0785
        27                          0.3279047               8.9227
        28                          0.4617863              12.5658
        29                          0.6610822              17.9890
        30                          0.8403175              22.8662
      -------------------------------------------------------------
                  HL-Gap            0.0057620 Eh            0.1568 eV
             Fermi-level           -0.3599121 Eh           -9.7937 eV

   #   Z        covCN         q      C6AA      α(0)
   1   7 N      1.792    -0.308    28.806     7.950
   2   6 C      2.817     0.149    24.754     8.152
   3   7 N      1.917     0.130    19.641     6.571
   4   7 N      0.985    -0.096    22.757     6.861
   5   8 O      0.925    -0.267    19.166     5.871
   6   7 N      1.846     0.185    18.758     6.419
   7   6 C      2.831    -0.029    28.719     8.782
   8   1 H      0.860     0.159     1.342     1.815
   9   1 H      0.924     0.077     2.005     2.214

 Mol. C6AA /au·bohr⁶  :       1304.729558
 Mol. C8AA /au·bohr⁸  :      29811.430018
 Mol. α(0) /au        :         54.634402


Wiberg/Mayer (AO) data.
largest (>0.10) Wiberg bond orders for each atom
          total WBO             WBO to atom ...
     1  N   3.096        C    2 1.536    H    8 0.944    N    4 0.163    O    5 0.130    N    6 0.128    N    3 0.125
     2  C   3.934        N    1 1.536    N    3 1.134    C    7 1.062    N    4 0.117
     3  N   3.689        N    4 2.258    C    2 1.134    N    1 0.125
     4  N   2.762        N    3 2.258    N    6 0.163    N    1 0.163    C    2 0.117
     5  O   1.994        N    6 1.492    C    7 0.250    N    1 0.130
     6  N   3.522        C    7 1.619    O    5 1.492    N    4 0.163    N    1 0.128
     7  C   3.948        N    6 1.619    C    2 1.062    H    9 0.907    O    5 0.250
     8  H   0.975        N    1 0.944
     9  H   0.983        C    7 0.907

molecular dipole:
                 x           y           z       tot (Debye)
 q only:       -0.978      -0.018       0.415
   full:       -1.186      -0.024       0.678       3.474
molecular quadrupole (traceless):
                xx          xy          yy          xz          yz          zz
 q only:       -6.919       2.837       3.346       2.198      -1.221       3.573
  q+dip:       -9.241       2.194       4.543       4.947      -1.970       4.698
   full:      -10.387       2.068       5.736       5.531      -1.720       4.651


           -------------------------------------------------
          | TOTAL ENERGY              -20.832170587716 Eh   |
          | GRADIENT NORM               0.014692457090 Eh/α |
          | HOMO-LUMO GAP               0.156791192015 eV   |
           -------------------------------------------------

------------------------------------------------------------------------
 * finished run on 2021/06/02 at 10:00:07.447     
------------------------------------------------------------------------
 total:
 * wall-time:     0 d,  0 h,  0 min,  0.018 sec
 *  cpu-time:     0 d,  0 h,  0 min,  0.017 sec
 * ratio c/w:     0.988 speedup
 SCF:
 * wall-time:     0 d,  0 h,  0 min,  0.010 sec
 *  cpu-time:     0 d,  0 h,  0 min,  0.010 sec
 * ratio c/w:     0.999 speedup

