      -----------------------------------------------------------      
     |                   =====================                   |     
     |                           x T B                           |     
     |                   =====================                   |     
     |                         S. Grimme                         |     
     |          Mulliken Center for Theoretical Chemistry        |     
     |                    University of Bonn                     |     
     |                 Version 6.1.4 (SAW190525)                 |     
      -----------------------------------------------------------      

   This program is distributed in the hope that it will be useful,
   but WITHOUT ANY WARRANTY; without even the implied warranty of
   MERCHANTABILITY or FITNESS FOR A PARTICULAR PURPOSE.
   
   FOR NON-COMMERCIAL, ACADEMIA USE ONLY.
   
   Cite this work as:
   S. Grimme, C. Bannwarth, P. Shushkov, J. Comput. Theory Chem., 2017,
   13, 1989-2009. DOI: 10.1021/acs.jctc.7b00118
   C. Bannwarth, S. Ehlert and S. Grimme., J. Comput. Theory Chem., 2019,
   just accepted. DOI: 10.1021/acs.jctc.8b01176
   
   for sTDA-xTB:
   S. Grimme and C. Bannwarth, J. Chem. Phys., 2016, 145, 054103.
   DOI: 10.1063/1.4959605
   
   in the mass-spec context:
   V. Asgeirsson, C. Bauer and S. Grimme, Chem. Sci., 2017, 8, 4879.
   DOI: 10.1039/c7sc00601b
   
   for metadynamics refer to:
   S. Grimme, J. Chem. Theory Comput. Article ASAP, 2019,
   DOI: 10.1021/acs.jctc.9b00143
   
   with help from (in alphabetical order)
   C. Bannwarth, F. Bohle, G. Brandenburg, E. Caldeweyher, M. Checinski,
   S. Dohm, S. Ehlert, S. Ehrlich, F. März, H. Neugebauer, J. Pisarek,
   P. Pracht, P. Shushkov, and S. Spicher.
   
 * started run on 2021/06/02 at 10:00:07.973     

           -------------------------------------------------
          |                Calculation Setup                |
           -------------------------------------------------

          program call               : /groups/kemi/koerstz/opt/xtb/6.1/bin/xtb 52.xyz --gfn2 --acc 0.2 --chrg 0
          hostname                   : node305
          coordinate file            : 52.xyz
          omp threads                :                     1
          number of atoms            :                     9
          number of electrons        :                    36
          charge                     :                     0
          spin                       :                   0.0
          first test random number   :      0.07809831976814


########################################################################
# WARNING! Please study the warnings concerning your input carefully
#  - XTBPATH is not set, using XTBHOME instead
########################################################################

           ------------------------------------------------- 
          |                 G F N 2 - x T B                 |
          | Geometry, Frequencies, Noncovalent interactions |
          |            JCTC 2018 parametrisation            |
           ------------------------------------------------- 
             k(s)              :                1.8500
             k(p)              :                2.2300
             k(d)              :                2.2300
             k(f)              :                2.0000
             kEN (H0ij)        :               -2.0000
             D4 a1             :                0.5200
             D4 a2             :                5.0000
             D4 s6             :                1.0000
             D4 s8             :                2.7000
             D4 s9             :                5.0000
             alphaj            :                2.0000

  Z AO/shell   Hii/eV     exponent
  1     Wed Apr 25 08:07:45 CEST 2018   EN: 2.200 GM2: 0.406  GM3: 0.0800  RAES: 1.40
     1s    -10.707211    1.230000
  6     Wed Apr 25 08:07:45 CEST 2018   EN: 2.550 GM2: 0.538  GM3: 0.1500  RAES: 3.00
     2s    -13.970922    2.096432
     2p    -10.063292    1.800000
  7     Wed Apr 25 08:07:45 CEST 2018   EN: 3.040 GM2: 0.461  GM3:-0.0640  RAES: 1.90
     2s    -16.686243    2.339881
     2p    -12.523956    2.014332
  8     Wed Apr 25 08:07:45 CEST 2018   EN: 3.440 GM2: 0.452  GM3:-0.0517  RAES: 1.80
     2s    -20.229985    2.439742
     2p    -15.503117    2.137023


            Z     q(EN)     CN     RAES       Cart. coordinates
     1  N   5.0   -0.42    2.02    1.90    -0.99761    -0.23397    -2.44700
     2  C   4.0    0.31    3.01    3.02    -0.83262    -1.59025    -0.43155
     3  N   5.0   -0.15    2.03    1.90    -2.89123    -2.18954     0.88277
     4  N   5.0   -0.15    1.00    1.90    -4.90309    -2.57433     1.53593
     5  O   6.0   -0.10    1.00    1.80     5.80229    -2.74314    -0.34926
     6  N   5.0   -0.14    2.01    1.90     3.54345    -2.48526    -0.58114
     7  C   4.0    0.14    3.01    3.02     1.54321    -2.34202     0.71635
     8  H   1.0    0.33    1.00    1.43    -2.74489     0.37519    -2.94058
     9  H   1.0    0.18    0.99    1.43     1.43529    -2.86888     2.71179

           ------------------------------------------------- 
          |        Self-Consistent Charge Iterations        |
           ------------------------------------------------- 
q/qsh data taken from xtbrestart
CAMM data taken from xtbrestart

          ...................................................
          :                      SETUP                      :
          :.................................................:
          :  # basis functions                  30          :
          :  # atomic orbitals                  30          :
          :  # shells                           16          :
          :  # electrons                        36          :
          :  max. iterations                   250          :
          :  Hamiltonian                  GFN2-xTB          :
          :  restarted?                       true          :
          :  GBSA solvation                  false          :
          :  PC potential                    false          :
          :  electronic temp.          300.0000000     K    :
          :  accuracy                    0.2000000          :
          :  -> integral cutoff          0.3198970E+02      :
          :  -> integral neglect         0.2000000E-08      :
          :  -> SCF convergence          0.2000000E-06 Eh   :
          :  -> wf. convergence          0.2000000E-04 e    :
          :  Broyden damping             0.4000000          :
          ...................................................

 iter      E             dE          RMSdq      gap      omega  full diag
   1    -20.5228291 -0.205228E+02  0.755E+00    0.50       0.0  T
   2    -20.5453613 -0.225322E-01  0.910E+00    1.58       1.0  T
   3    -20.8493053 -0.303944E+00  0.574E+00    1.73       1.0  T
   4    -20.7464717  0.102834E+00  0.496E+00    0.49       1.0  T
   5    -21.0144323 -0.267961E+00  0.252E+00    0.24       1.0  T
   6    -20.9008245  0.113608E+00  0.363E+00    0.27       1.0  T
   7    -20.9323600 -0.315355E-01  0.340E+00    0.44       1.0  T
   8    -21.0623293 -0.129969E+00  0.121E+00    0.18       1.0  T
   9    -21.0659607 -0.363147E-02  0.998E-01    0.16       1.0  T
  10    -21.0544219  0.115388E-01  0.138E+00    0.18       1.0  T
  11    -21.0739735 -0.195516E-01  0.633E-01    0.16       1.0  T
  12    -21.0789357 -0.496219E-02  0.146E-01    0.15       1.0  T
  13    -21.0790644 -0.128716E-03  0.106E-01    0.15       1.0  T
  14    -21.0791537 -0.893584E-04  0.659E-02    0.15       1.0  T
  15    -21.0792099 -0.561856E-04  0.104E-02    0.15       3.2  T
  16    -21.0792094  0.513073E-06  0.122E-02    0.15       2.7  T
  17    -21.0792114 -0.198149E-05  0.692E-04    0.15      48.2  T
  18    -21.0792114  0.777597E-09  0.766E-04    0.15      43.5  T
  19    -21.0792114 -0.709294E-08  0.358E-05    0.15     931.1  T
  20    -21.0792114  0.489553E-09  0.193E-04    0.15     172.8  T

   *** convergence criteria satisfied after 20 iterations ***

         #    Occupation            Energy/Eh            Energy/eV
      -------------------------------------------------------------
         1        2.0000           -0.7488983             -20.3786
       ...           ...                  ...                  ...
        12        2.0000           -0.5518588             -15.0168
        13        2.0000           -0.5233212             -14.2403
        14        2.0000           -0.5052892             -13.7496
        15        2.0000           -0.5047109             -13.7339
        16        2.0000           -0.4287234             -11.6662
        17        2.0000           -0.4273967             -11.6301
        18        1.8947           -0.3627289              -9.8704 (HOMO)
        19        0.1053           -0.3572386              -9.7210 (LUMO)
        20                         -0.3401479              -9.2559
        21                         -0.2796375              -7.6093
        22                         -0.1829937              -4.9795
        23                          0.0219498               0.5973
       ...                                ...                  ...
        30                          0.8652321              23.5442
      -------------------------------------------------------------
                  HL-Gap            0.0054903 Eh            0.1494 eV
             Fermi-level           -0.3599838 Eh           -9.7957 eV

 SCC (total)                   0 d,  0 h,  0 min,  0.009 sec
 SCC setup                      ...        0 min,  0.000 sec (  1.471%)
 Dispersion                     ...        0 min,  0.000 sec (  0.688%)
 integral evaluation            ...        0 min,  0.001 sec ( 11.776%)
 zeroth order Hamiltonian       ...        0 min,  0.000 sec (  0.351%)
 iterations                     ...        0 min,  0.006 sec ( 62.395%)
 molecular gradient             ...        0 min,  0.002 sec ( 21.061%)
 printout                       ...        0 min,  0.000 sec (  1.857%)

         :::::::::::::::::::::::::::::::::::::::::::::::::::::
         ::                     SUMMARY                     ::
         :::::::::::::::::::::::::::::::::::::::::::::::::::::
         :: total energy              -20.832131145141 Eh   ::
         :: gradient norm               0.013056705481 Eh/α ::
         :: HOMO-LUMO gap               0.149399972394 eV   ::
         ::.................................................::
         :: SCC energy                -21.079211401923 Eh   ::
         :: -> isotropic ES             0.026796655555 Eh   ::
         :: -> anisotropic ES           0.004252911946 Eh   ::
         :: -> anisotropic XC           0.025086745235 Eh   ::
         :: -> dispersion              -0.005503510043 Eh   ::
         :: repulsion energy            0.247079178254 Eh   ::
         :: add. restraining            0.000000000000 Eh   ::
         :::::::::::::::::::::::::::::::::::::::::::::::::::::

           -------------------------------------------------
          |                Property Printout                |
           -------------------------------------------------

    * Orbital Energies and Occupations

         #    Occupation            Energy/Eh            Energy/eV
      -------------------------------------------------------------
         1        2.0000           -0.7488983             -20.3786
       ...           ...                  ...                  ...
         6        2.0000           -0.6339014             -17.2493
         7        2.0000           -0.6141443             -16.7117
         8        2.0000           -0.6061317             -16.4937
         9        2.0000           -0.5933192             -16.1450
        10        2.0000           -0.5884363             -16.0122
        11        2.0000           -0.5678844             -15.4529
        12        2.0000           -0.5518588             -15.0168
        13        2.0000           -0.5233212             -14.2403
        14        2.0000           -0.5052892             -13.7496
        15        2.0000           -0.5047109             -13.7339
        16        2.0000           -0.4287234             -11.6662
        17        2.0000           -0.4273967             -11.6301
        18        1.8947           -0.3627289              -9.8704 (HOMO)
        19        0.1053           -0.3572386              -9.7210 (LUMO)
        20                         -0.3401479              -9.2559
        21                         -0.2796375              -7.6093
        22                         -0.1829937              -4.9795
        23                          0.0219498               0.5973
        24                          0.0533957               1.4530
        25                          0.1637447               4.4557
        26                          0.1829651               4.9787
        27                          0.3273202               8.9068
        28                          0.4626372              12.5890
        29                          0.6568597              17.8741
        30                          0.8652321              23.5442
      -------------------------------------------------------------
                  HL-Gap            0.0054903 Eh            0.1494 eV
             Fermi-level           -0.3599838 Eh           -9.7957 eV

   #   Z        covCN         q      C6AA      α(0)
   1   7 N      1.791    -0.312    28.918     7.965
   2   6 C      2.813     0.149    24.758     8.152
   3   7 N      1.920     0.135    19.556     6.557
   4   7 N      0.984    -0.093    22.702     6.853
   5   8 O      0.925    -0.265    19.140     5.867
   6   7 N      1.844     0.184    18.762     6.419
   7   6 C      2.833    -0.030    28.739     8.785
   8   1 H      0.860     0.156     1.360     1.827
   9   1 H      0.924     0.076     2.018     2.221

 Mol. C6AA /au·bohr⁶  :       1305.232728
 Mol. C8AA /au·bohr⁸  :      29818.405605
 Mol. α(0) /au        :         54.646972


Wiberg/Mayer (AO) data.
largest (>0.10) Wiberg bond orders for each atom
          total WBO             WBO to atom ...
     1  N   3.069        C    2 1.523    H    8 0.945    N    4 0.152    O    5 0.129    N    6 0.128    N    3 0.119
     2  C   3.934        N    1 1.523    N    3 1.146    C    7 1.062    N    4 0.121
     3  N   3.699        N    4 2.264    C    2 1.146    N    1 0.119
     4  N   2.757        N    3 2.264    N    6 0.158    N    1 0.152    C    2 0.121
     5  O   1.993        N    6 1.493    C    7 0.251    N    1 0.129
     6  N   3.508        C    7 1.614    O    5 1.493    N    4 0.158    N    1 0.128
     7  C   3.946        N    6 1.614    C    2 1.062    H    9 0.905    O    5 0.251
     8  H   0.975        N    1 0.945
     9  H   0.982        C    7 0.905

molecular dipole:
                 x           y           z       tot (Debye)
 q only:       -0.997      -0.040       0.387
   full:       -1.219      -0.052       0.642       3.505
molecular quadrupole (traceless):
                xx          xy          yy          xz          yz          zz
 q only:       -6.671       3.051       3.370       1.998      -1.008       3.301
  q+dip:       -8.807       2.486       4.554       4.770      -1.629       4.252
   full:       -9.925       2.377       5.721       5.486      -1.340       4.204


           -------------------------------------------------
          | TOTAL ENERGY              -20.832131145141 Eh   |
          | GRADIENT NORM               0.013056705481 Eh/α |
          | HOMO-LUMO GAP               0.149399972394 eV   |
           -------------------------------------------------

------------------------------------------------------------------------
 * finished run on 2021/06/02 at 10:00:07.990     
------------------------------------------------------------------------
 total:
 * wall-time:     0 d,  0 h,  0 min,  0.017 sec
 *  cpu-time:     0 d,  0 h,  0 min,  0.016 sec
 * ratio c/w:     0.987 speedup
 SCF:
 * wall-time:     0 d,  0 h,  0 min,  0.009 sec
 *  cpu-time:     0 d,  0 h,  0 min,  0.009 sec
 * ratio c/w:     1.000 speedup

