      -----------------------------------------------------------      
     |                   =====================                   |     
     |                           x T B                           |     
     |                   =====================                   |     
     |                         S. Grimme                         |     
     |          Mulliken Center for Theoretical Chemistry        |     
     |                    University of Bonn                     |     
     |                 Version 6.1.4 (SAW190525)                 |     
      -----------------------------------------------------------      

   This program is distributed in the hope that it will be useful,
   but WITHOUT ANY WARRANTY; without even the implied warranty of
   MERCHANTABILITY or FITNESS FOR A PARTICULAR PURPOSE.
   
   FOR NON-COMMERCIAL, ACADEMIA USE ONLY.
   
   Cite this work as:
   S. Grimme, C. Bannwarth, P. Shushkov, J. Comput. Theory Chem., 2017,
   13, 1989-2009. DOI: 10.1021/acs.jctc.7b00118
   C. Bannwarth, S. Ehlert and S. Grimme., J. Comput. Theory Chem., 2019,
   just accepted. DOI: 10.1021/acs.jctc.8b01176
   
   for sTDA-xTB:
   S. Grimme and C. Bannwarth, J. Chem. Phys., 2016, 145, 054103.
   DOI: 10.1063/1.4959605
   
   in the mass-spec context:
   V. Asgeirsson, C. Bauer and S. Grimme, Chem. Sci., 2017, 8, 4879.
   DOI: 10.1039/c7sc00601b
   
   for metadynamics refer to:
   S. Grimme, J. Chem. Theory Comput. Article ASAP, 2019,
   DOI: 10.1021/acs.jctc.9b00143
   
   with help from (in alphabetical order)
   C. Bannwarth, F. Bohle, G. Brandenburg, E. Caldeweyher, M. Checinski,
   S. Dohm, S. Ehlert, S. Ehrlich, F. März, H. Neugebauer, J. Pisarek,
   P. Pracht, P. Shushkov, and S. Spicher.
   
 * started run on 2021/06/02 at 10:00:07.141     

           -------------------------------------------------
          |                Calculation Setup                |
           -------------------------------------------------

          program call               : /groups/kemi/koerstz/opt/xtb/6.1/bin/xtb 54.xyz --gfn2 --acc 0.2 --chrg 0
          hostname                   : node305
          coordinate file            : 54.xyz
          omp threads                :                     1
          number of atoms            :                     9
          number of electrons        :                    36
          charge                     :                     0
          spin                       :                   0.0
          first test random number   :      0.04723666748736


########################################################################
# WARNING! Please study the warnings concerning your input carefully
#  - XTBPATH is not set, using XTBHOME instead
########################################################################

           ------------------------------------------------- 
          |                 G F N 2 - x T B                 |
          | Geometry, Frequencies, Noncovalent interactions |
          |            JCTC 2018 parametrisation            |
           ------------------------------------------------- 
             k(s)              :                1.8500
             k(p)              :                2.2300
             k(d)              :                2.2300
             k(f)              :                2.0000
             kEN (H0ij)        :               -2.0000
             D4 a1             :                0.5200
             D4 a2             :                5.0000
             D4 s6             :                1.0000
             D4 s8             :                2.7000
             D4 s9             :                5.0000
             alphaj            :                2.0000

  Z AO/shell   Hii/eV     exponent
  1     Wed Apr 25 08:07:45 CEST 2018   EN: 2.200 GM2: 0.406  GM3: 0.0800  RAES: 1.40
     1s    -10.707211    1.230000
  6     Wed Apr 25 08:07:45 CEST 2018   EN: 2.550 GM2: 0.538  GM3: 0.1500  RAES: 3.00
     2s    -13.970922    2.096432
     2p    -10.063292    1.800000
  7     Wed Apr 25 08:07:45 CEST 2018   EN: 3.040 GM2: 0.461  GM3:-0.0640  RAES: 1.90
     2s    -16.686243    2.339881
     2p    -12.523956    2.014332
  8     Wed Apr 25 08:07:45 CEST 2018   EN: 3.440 GM2: 0.452  GM3:-0.0517  RAES: 1.80
     2s    -20.229985    2.439742
     2p    -15.503117    2.137023


            Z     q(EN)     CN     RAES       Cart. coordinates
     1  N   5.0   -0.42    2.02    1.90    -1.01237    -0.21899    -2.40632
     2  C   4.0    0.32    3.02    3.02    -0.81490    -1.54585    -0.38135
     3  N   5.0   -0.15    2.03    1.90    -2.88615    -2.13511     0.94378
     4  N   5.0   -0.15    1.00    1.90    -4.92657    -2.63748     1.39517
     5  O   6.0   -0.11    1.00    1.80     5.76334    -2.81716    -0.32292
     6  N   5.0   -0.14    2.01    1.90     3.51646    -2.48794    -0.65304
     7  C   4.0    0.14    3.01    3.02     1.56665    -2.29306     0.73747
     8  H   1.0    0.33    1.00    1.43    -2.76490     0.33055    -2.93768
     9  H   1.0    0.18    0.99    1.43     1.51323    -2.84714     2.72221

           ------------------------------------------------- 
          |        Self-Consistent Charge Iterations        |
           ------------------------------------------------- 
q/qsh data taken from xtbrestart
CAMM data taken from xtbrestart

          ...................................................
          :                      SETUP                      :
          :.................................................:
          :  # basis functions                  30          :
          :  # atomic orbitals                  30          :
          :  # shells                           16          :
          :  # electrons                        36          :
          :  max. iterations                   250          :
          :  Hamiltonian                  GFN2-xTB          :
          :  restarted?                       true          :
          :  GBSA solvation                  false          :
          :  PC potential                    false          :
          :  electronic temp.          300.0000000     K    :
          :  accuracy                    0.2000000          :
          :  -> integral cutoff          0.3198970E+02      :
          :  -> integral neglect         0.2000000E-08      :
          :  -> SCF convergence          0.2000000E-06 Eh   :
          :  -> wf. convergence          0.2000000E-04 e    :
          :  Broyden damping             0.4000000          :
          ...................................................

 iter      E             dE          RMSdq      gap      omega  full diag
   1    -20.6556151 -0.206556E+02  0.759E+00    0.51       0.0  T
   2    -20.5841861  0.714290E-01  0.873E+00    1.54       1.0  T
   3    -20.8781097 -0.293924E+00  0.543E+00    1.68       1.0  T
   4    -20.6315450  0.246565E+00  0.574E+00    0.30       1.0  T
   5    -21.0201950 -0.388650E+00  0.213E+00    0.20       1.0  T
   6    -20.9629693  0.572257E-01  0.305E+00    0.39       1.0  T
   7    -20.8643149  0.986544E-01  0.400E+00    0.30       1.0  T
   8    -21.0754573 -0.211142E+00  0.554E-01    0.17       1.0  T
   9    -21.0774763 -0.201898E-02  0.331E-01    0.16       1.0  T
  10    -21.0683095  0.916675E-02  0.842E-01    0.17       1.0  T
  11    -21.0623887  0.592082E-02  0.107E+00    0.15       1.0  T
  12    -21.0768946 -0.145059E-01  0.264E-01    0.15       1.0  T
  13    -21.0773926 -0.497993E-03  0.179E-01    0.15       1.0  T
  14    -21.0778207 -0.428067E-03  0.136E-02    0.15       2.5  T
  15    -21.0778138  0.691150E-05  0.259E-02    0.15       1.3  T
  16    -21.0778169 -0.312292E-05  0.209E-02    0.15       1.6  T
  17    -21.0778227 -0.580747E-05  0.196E-03    0.15      17.0  T
  18    -21.0778227 -0.489947E-07  0.479E-04    0.15      69.5  T
  19    -21.0778227  0.210498E-09  0.488E-04    0.15      68.2  T
  20    -21.0778227 -0.248777E-08  0.229E-04    0.15     145.4  T
  21    -21.0778227 -0.658495E-09  0.642E-05    0.15     519.0  T
  22    -21.0778227 -0.548148E-10  0.101E-05    0.15    3303.7  T

   *** convergence criteria satisfied after 22 iterations ***

         #    Occupation            Energy/Eh            Energy/eV
      -------------------------------------------------------------
         1        2.0000           -0.7523272             -20.4719
       ...           ...                  ...                  ...
        12        2.0000           -0.5512470             -15.0002
        13        2.0000           -0.5251122             -14.2890
        14        2.0000           -0.5075825             -13.8120
        15        2.0000           -0.5035783             -13.7031
        16        2.0000           -0.4326426             -11.7728
        17        2.0000           -0.4254914             -11.5782
        18        1.9019           -0.3657669              -9.9530 (HOMO)
        19        0.0981           -0.3601338              -9.7997 (LUMO)
        20                         -0.3435736              -9.3491
        21                         -0.2818989              -7.6709
        22                         -0.1870857              -5.0909
        23                          0.0282613               0.7690
       ...                                ...                  ...
        30                          0.8381945              22.8084
      -------------------------------------------------------------
                  HL-Gap            0.0056332 Eh            0.1533 eV
             Fermi-level           -0.3629504 Eh           -9.8764 eV

 SCC (total)                   0 d,  0 h,  0 min,  0.010 sec
 SCC setup                      ...        0 min,  0.000 sec (  1.340%)
 Dispersion                     ...        0 min,  0.000 sec (  0.593%)
 integral evaluation            ...        0 min,  0.001 sec ( 11.048%)
 zeroth order Hamiltonian       ...        0 min,  0.000 sec (  0.347%)
 iterations                     ...        0 min,  0.006 sec ( 64.063%)
 molecular gradient             ...        0 min,  0.002 sec ( 20.058%)
 printout                       ...        0 min,  0.000 sec (  2.099%)

         :::::::::::::::::::::::::::::::::::::::::::::::::::::
         ::                     SUMMARY                     ::
         :::::::::::::::::::::::::::::::::::::::::::::::::::::
         :: total energy              -20.832963912669 Eh   ::
         :: gradient norm               0.005869938236 Eh/α ::
         :: HOMO-LUMO gap               0.153286680154 eV   ::
         ::.................................................::
         :: SCC energy                -21.077822735206 Eh   ::
         :: -> isotropic ES             0.027169654841 Eh   ::
         :: -> anisotropic ES           0.004018788265 Eh   ::
         :: -> anisotropic XC           0.024675233867 Eh   ::
         :: -> dispersion              -0.005509782277 Eh   ::
         :: repulsion energy            0.244857706932 Eh   ::
         :: add. restraining            0.000000000000 Eh   ::
         :::::::::::::::::::::::::::::::::::::::::::::::::::::

           -------------------------------------------------
          |                Property Printout                |
           -------------------------------------------------

    * Orbital Energies and Occupations

         #    Occupation            Energy/Eh            Energy/eV
      -------------------------------------------------------------
         1        2.0000           -0.7523272             -20.4719
       ...           ...                  ...                  ...
         6        2.0000           -0.6329428             -17.2232
         7        2.0000           -0.6169514             -16.7881
         8        2.0000           -0.6044134             -16.4469
         9        2.0000           -0.5932648             -16.1436
        10        2.0000           -0.5853347             -15.9278
        11        2.0000           -0.5664398             -15.4136
        12        2.0000           -0.5512470             -15.0002
        13        2.0000           -0.5251122             -14.2890
        14        2.0000           -0.5075825             -13.8120
        15        2.0000           -0.5035783             -13.7031
        16        2.0000           -0.4326426             -11.7728
        17        2.0000           -0.4254914             -11.5782
        18        1.9019           -0.3657669              -9.9530 (HOMO)
        19        0.0981           -0.3601338              -9.7997 (LUMO)
        20                         -0.3435736              -9.3491
        21                         -0.2818989              -7.6709
        22                         -0.1870857              -5.0909
        23                          0.0282613               0.7690
        24                          0.0518379               1.4106
        25                          0.1648591               4.4860
        26                          0.1948171               5.3012
        27                          0.3299316               8.9779
        28                          0.4657326              12.6732
        29                          0.6169215              16.7873
        30                          0.8381945              22.8084
      -------------------------------------------------------------
                  HL-Gap            0.0056332 Eh            0.1533 eV
             Fermi-level           -0.3629504 Eh           -9.8764 eV

   #   Z        covCN         q      C6AA      α(0)
   1   7 N      1.792    -0.304    28.707     7.936
   2   6 C      2.816     0.151    24.714     8.145
   3   7 N      1.919     0.135    19.555     6.557
   4   7 N      0.984    -0.088    22.584     6.835
   5   8 O      0.926    -0.271    19.246     5.883
   6   7 N      1.846     0.172    18.956     6.453
   7   6 C      2.833    -0.029    28.708     8.780
   8   1 H      0.860     0.159     1.339     1.813
   9   1 H      0.924     0.074     2.044     2.236

 Mol. C6AA /au·bohr⁶  :       1304.873582
 Mol. C8AA /au·bohr⁸  :      29807.653489
 Mol. α(0) /au        :         54.637667


Wiberg/Mayer (AO) data.
largest (>0.10) Wiberg bond orders for each atom
          total WBO             WBO to atom ...
     1  N   3.098        C    2 1.540    H    8 0.944    N    4 0.164    O    5 0.130    N    3 0.123    N    6 0.123
     2  C   3.936        N    1 1.540    N    3 1.124    C    7 1.078    N    4 0.113
     3  N   3.692        N    4 2.273    C    2 1.124    N    1 0.123
     4  N   2.767        N    3 2.273    N    1 0.164    N    6 0.156    C    2 0.113
     5  O   1.984        N    6 1.492    C    7 0.241    N    1 0.130
     6  N   3.480        C    7 1.593    O    5 1.492    N    4 0.156    N    1 0.123
     7  C   3.945        N    6 1.593    C    2 1.078    H    9 0.912    O    5 0.241
     8  H   0.974        N    1 0.944
     9  H   0.984        C    7 0.912

molecular dipole:
                 x           y           z       tot (Debye)
 q only:       -1.107       0.020       0.366
   full:       -1.328       0.010       0.630       3.737
molecular quadrupole (traceless):
                xx          xy          yy          xz          yz          zz
 q only:       -6.726       3.538       3.038       1.822      -1.001       3.688
  q+dip:       -8.978       2.987       4.177       4.524      -1.673       4.800
   full:      -10.072       2.850       5.371       5.087      -1.384       4.701


           -------------------------------------------------
          | TOTAL ENERGY              -20.832963912669 Eh   |
          | GRADIENT NORM               0.005869938236 Eh/α |
          | HOMO-LUMO GAP               0.153286680154 eV   |
           -------------------------------------------------

------------------------------------------------------------------------
 * finished run on 2021/06/02 at 10:00:07.159     
------------------------------------------------------------------------
 total:
 * wall-time:     0 d,  0 h,  0 min,  0.018 sec
 *  cpu-time:     0 d,  0 h,  0 min,  0.018 sec
 * ratio c/w:     0.988 speedup
 SCF:
 * wall-time:     0 d,  0 h,  0 min,  0.010 sec
 *  cpu-time:     0 d,  0 h,  0 min,  0.010 sec
 * ratio c/w:     1.000 speedup

