      -----------------------------------------------------------      
     |                   =====================                   |     
     |                           x T B                           |     
     |                   =====================                   |     
     |                         S. Grimme                         |     
     |          Mulliken Center for Theoretical Chemistry        |     
     |                    University of Bonn                     |     
     |                 Version 6.1.4 (SAW190525)                 |     
      -----------------------------------------------------------      

   This program is distributed in the hope that it will be useful,
   but WITHOUT ANY WARRANTY; without even the implied warranty of
   MERCHANTABILITY or FITNESS FOR A PARTICULAR PURPOSE.
   
   FOR NON-COMMERCIAL, ACADEMIA USE ONLY.
   
   Cite this work as:
   S. Grimme, C. Bannwarth, P. Shushkov, J. Comput. Theory Chem., 2017,
   13, 1989-2009. DOI: 10.1021/acs.jctc.7b00118
   C. Bannwarth, S. Ehlert and S. Grimme., J. Comput. Theory Chem., 2019,
   just accepted. DOI: 10.1021/acs.jctc.8b01176
   
   for sTDA-xTB:
   S. Grimme and C. Bannwarth, J. Chem. Phys., 2016, 145, 054103.
   DOI: 10.1063/1.4959605
   
   in the mass-spec context:
   V. Asgeirsson, C. Bauer and S. Grimme, Chem. Sci., 2017, 8, 4879.
   DOI: 10.1039/c7sc00601b
   
   for metadynamics refer to:
   S. Grimme, J. Chem. Theory Comput. Article ASAP, 2019,
   DOI: 10.1021/acs.jctc.9b00143
   
   with help from (in alphabetical order)
   C. Bannwarth, F. Bohle, G. Brandenburg, E. Caldeweyher, M. Checinski,
   S. Dohm, S. Ehlert, S. Ehrlich, F. März, H. Neugebauer, J. Pisarek,
   P. Pracht, P. Shushkov, and S. Spicher.
   
 * started run on 2021/06/02 at 10:00:07.927     

           -------------------------------------------------
          |                Calculation Setup                |
           -------------------------------------------------

          program call               : /groups/kemi/koerstz/opt/xtb/6.1/bin/xtb 56.xyz --gfn2 --acc 0.2 --chrg 0
          hostname                   : node305
          coordinate file            : 56.xyz
          omp threads                :                     1
          number of atoms            :                     9
          number of electrons        :                    36
          charge                     :                     0
          spin                       :                   0.0
          first test random number   :      0.50226099495412


########################################################################
# WARNING! Please study the warnings concerning your input carefully
#  - XTBPATH is not set, using XTBHOME instead
########################################################################

           ------------------------------------------------- 
          |                 G F N 2 - x T B                 |
          | Geometry, Frequencies, Noncovalent interactions |
          |            JCTC 2018 parametrisation            |
           ------------------------------------------------- 
             k(s)              :                1.8500
             k(p)              :                2.2300
             k(d)              :                2.2300
             k(f)              :                2.0000
             kEN (H0ij)        :               -2.0000
             D4 a1             :                0.5200
             D4 a2             :                5.0000
             D4 s6             :                1.0000
             D4 s8             :                2.7000
             D4 s9             :                5.0000
             alphaj            :                2.0000

  Z AO/shell   Hii/eV     exponent
  1     Wed Apr 25 08:07:45 CEST 2018   EN: 2.200 GM2: 0.406  GM3: 0.0800  RAES: 1.40
     1s    -10.707211    1.230000
  6     Wed Apr 25 08:07:45 CEST 2018   EN: 2.550 GM2: 0.538  GM3: 0.1500  RAES: 3.00
     2s    -13.970922    2.096432
     2p    -10.063292    1.800000
  7     Wed Apr 25 08:07:45 CEST 2018   EN: 3.040 GM2: 0.461  GM3:-0.0640  RAES: 1.90
     2s    -16.686243    2.339881
     2p    -12.523956    2.014332
  8     Wed Apr 25 08:07:45 CEST 2018   EN: 3.440 GM2: 0.452  GM3:-0.0517  RAES: 1.80
     2s    -20.229985    2.439742
     2p    -15.503117    2.137023


            Z     q(EN)     CN     RAES       Cart. coordinates
     1  N   5.0   -0.42    2.02    1.90    -1.02845    -0.20649    -2.42164
     2  C   4.0    0.31    3.01    3.02    -0.81022    -1.53958    -0.40047
     3  N   5.0   -0.15    2.03    1.90    -2.88038    -2.15025     0.91749
     4  N   5.0   -0.15    1.00    1.90    -4.91090    -2.61943     1.44581
     5  O   6.0   -0.11    1.00    1.80     5.76968    -2.82258    -0.25718
     6  N   5.0   -0.14    2.01    1.90     3.53005    -2.48767    -0.65877
     7  C   4.0    0.14    3.01    3.02     1.56389    -2.29135     0.71733
     8  H   1.0    0.33    1.00    1.43    -2.79137     0.32759    -2.94103
     9  H   1.0    0.18    0.99    1.43     1.51249    -2.86246     2.69577

           ------------------------------------------------- 
          |        Self-Consistent Charge Iterations        |
           ------------------------------------------------- 
q/qsh data taken from xtbrestart
CAMM data taken from xtbrestart

          ...................................................
          :                      SETUP                      :
          :.................................................:
          :  # basis functions                  30          :
          :  # atomic orbitals                  30          :
          :  # shells                           16          :
          :  # electrons                        36          :
          :  max. iterations                   250          :
          :  Hamiltonian                  GFN2-xTB          :
          :  restarted?                       true          :
          :  GBSA solvation                  false          :
          :  PC potential                    false          :
          :  electronic temp.          300.0000000     K    :
          :  accuracy                    0.2000000          :
          :  -> integral cutoff          0.3198970E+02      :
          :  -> integral neglect         0.2000000E-08      :
          :  -> SCF convergence          0.2000000E-06 Eh   :
          :  -> wf. convergence          0.2000000E-04 e    :
          :  Broyden damping             0.4000000          :
          ...................................................

 iter      E             dE          RMSdq      gap      omega  full diag
   1    -20.9449804 -0.209450E+02  0.461E+00    0.62       0.0  T
   2    -18.7648781  0.218010E+01  0.119E+01    0.41       1.0  T
   3    -20.9600845 -0.219521E+01  0.341E+00    0.47       1.0  T
   4    -21.0707199 -0.110635E+00  0.154E+00    0.18       1.0  T
   5    -21.0169107  0.538092E-01  0.202E+00    0.24       1.0  T
   6    -20.8376637  0.179247E+00  0.476E+00    0.34       1.0  T
   7    -20.8523159 -0.146522E-01  0.458E+00    0.32       1.0  T
   8    -20.9153927 -0.630768E-01  0.378E+00    0.23       1.0  T
   9    -21.0710025 -0.155610E+00  0.844E-01    0.16       1.0  T
  10    -20.9457164  0.125286E+00  0.329E+00    0.20       1.0  T
  11    -20.9626802 -0.169638E-01  0.304E+00    0.19       1.0  T
  12    -21.0612809 -0.986007E-01  0.106E+00    0.17       1.0  T
  13    -21.0712410 -0.996005E-02  0.632E-01    0.16       1.0  T
  14    -21.0721077 -0.866756E-03  0.584E-01    0.16       1.0  T
  15    -21.0765186 -0.441088E-02  0.735E-02    0.16       1.0  T
  16    -21.0764868  0.318185E-04  0.842E-02    0.15       1.0  T
  17    -21.0765296 -0.428159E-04  0.549E-02    0.15       1.0  T
  18    -21.0765636 -0.339651E-04  0.217E-02    0.15       1.5  T
  19    -21.0765694 -0.588879E-05  0.439E-03    0.15       7.6  T
  20    -21.0765696 -0.137842E-06  0.292E-03    0.15      11.4  T
  21    -21.0765697 -0.113648E-06  0.220E-04    0.15     151.6  T
  22    -21.0765697  0.729003E-09  0.312E-04    0.15     106.8  T
  23    -21.0765697 -0.129161E-08  0.463E-05    0.15     720.6  T
  24    -21.0765697 -0.193445E-10  0.273E-05    0.15    1221.7  T

   *** convergence criteria satisfied after 24 iterations ***

         #    Occupation            Energy/Eh            Energy/eV
      -------------------------------------------------------------
         1        2.0000           -0.7532568             -20.4972
       ...           ...                  ...                  ...
        12        2.0000           -0.5506620             -14.9843
        13        2.0000           -0.5268641             -14.3367
        14        2.0000           -0.5080768             -13.8255
        15        2.0000           -0.5033664             -13.6973
        16        2.0000           -0.4327549             -11.7759
        17        2.0000           -0.4251327             -11.5685
        18        1.9018           -0.3668384              -9.9822 (HOMO)
        19        0.0982           -0.3612071              -9.8289 (LUMO)
        20                         -0.3445798              -9.3765
        21                         -0.2830296              -7.7016
        22                         -0.1868899              -5.0855
        23                          0.0255735               0.6959
       ...                                ...                  ...
        30                          0.8405939              22.8737
      -------------------------------------------------------------
                  HL-Gap            0.0056313 Eh            0.1532 eV
             Fermi-level           -0.3640228 Eh           -9.9056 eV

 SCC (total)                   0 d,  0 h,  0 min,  0.010 sec
 SCC setup                      ...        0 min,  0.000 sec (  1.252%)
 Dispersion                     ...        0 min,  0.000 sec (  0.607%)
 integral evaluation            ...        0 min,  0.001 sec ( 10.507%)
 zeroth order Hamiltonian       ...        0 min,  0.000 sec (  0.327%)
 iterations                     ...        0 min,  0.007 sec ( 66.305%)
 molecular gradient             ...        0 min,  0.002 sec ( 18.904%)
 printout                       ...        0 min,  0.000 sec (  1.750%)

         :::::::::::::::::::::::::::::::::::::::::::::::::::::
         ::                     SUMMARY                     ::
         :::::::::::::::::::::::::::::::::::::::::::::::::::::
         :: total energy              -20.833050066626 Eh   ::
         :: gradient norm               0.003906558959 Eh/α ::
         :: HOMO-LUMO gap               0.153234857213 eV   ::
         ::.................................................::
         :: SCC energy                -21.076569700829 Eh   ::
         :: -> isotropic ES             0.027492573625 Eh   ::
         :: -> anisotropic ES           0.003981943807 Eh   ::
         :: -> anisotropic XC           0.024928436495 Eh   ::
         :: -> dispersion              -0.005505131724 Eh   ::
         :: repulsion energy            0.243518488092 Eh   ::
         :: add. restraining            0.000000000000 Eh   ::
         :::::::::::::::::::::::::::::::::::::::::::::::::::::

           -------------------------------------------------
          |                Property Printout                |
           -------------------------------------------------

    * Orbital Energies and Occupations

         #    Occupation            Energy/Eh            Energy/eV
      -------------------------------------------------------------
         1        2.0000           -0.7532568             -20.4972
       ...           ...                  ...                  ...
         6        2.0000           -0.6333447             -17.2342
         7        2.0000           -0.6181715             -16.8213
         8        2.0000           -0.6042205             -16.4417
         9        2.0000           -0.5933069             -16.1447
        10        2.0000           -0.5842269             -15.8976
        11        2.0000           -0.5660947             -15.4042
        12        2.0000           -0.5506620             -14.9843
        13        2.0000           -0.5268641             -14.3367
        14        2.0000           -0.5080768             -13.8255
        15        2.0000           -0.5033664             -13.6973
        16        2.0000           -0.4327549             -11.7759
        17        2.0000           -0.4251327             -11.5685
        18        1.9018           -0.3668384              -9.9822 (HOMO)
        19        0.0982           -0.3612071              -9.8289 (LUMO)
        20                         -0.3445798              -9.3765
        21                         -0.2830296              -7.7016
        22                         -0.1868899              -5.0855
        23                          0.0255735               0.6959
        24                          0.0488651               1.3297
        25                          0.1639330               4.4608
        26                          0.1931655               5.2563
        27                          0.3313037               9.0152
        28                          0.4658893              12.6775
        29                          0.6023094              16.3897
        30                          0.8405939              22.8737
      -------------------------------------------------------------
                  HL-Gap            0.0056313 Eh            0.1532 eV
             Fermi-level           -0.3640228 Eh           -9.9056 eV

   #   Z        covCN         q      C6AA      α(0)
   1   7 N      1.793    -0.304    28.703     7.936
   2   6 C      2.815     0.152    24.701     8.143
   3   7 N      1.920     0.137    19.519     6.551
   4   7 N      0.984    -0.085    22.528     6.827
   5   8 O      0.926    -0.273    19.274     5.888
   6   7 N      1.845     0.168    19.027     6.465
   7   6 C      2.834    -0.028    28.681     8.776
   8   1 H      0.860     0.159     1.341     1.814
   9   1 H      0.925     0.073     2.051     2.239

 Mol. C6AA /au·bohr⁶  :       1304.902722
 Mol. C8AA /au·bohr⁸  :      29805.888824
 Mol. α(0) /au        :         54.638003


Wiberg/Mayer (AO) data.
largest (>0.10) Wiberg bond orders for each atom
          total WBO             WBO to atom ...
     1  N   3.096        C    2 1.535    H    8 0.944    N    4 0.164    O    5 0.132    N    6 0.123    N    3 0.123
     2  C   3.936        N    1 1.535    N    3 1.124    C    7 1.084    N    4 0.113
     3  N   3.697        N    4 2.278    C    2 1.124    N    1 0.123
     4  N   2.770        N    3 2.278    N    1 0.164    N    6 0.154    C    2 0.113
     5  O   1.982        N    6 1.491    C    7 0.237    N    1 0.132
     6  N   3.469        C    7 1.586    O    5 1.491    N    4 0.154    N    1 0.123
     7  C   3.945        N    6 1.586    C    2 1.084    H    9 0.913    O    5 0.237
     8  H   0.975        N    1 0.944
     9  H   0.984        C    7 0.913

molecular dipole:
                 x           y           z       tot (Debye)
 q only:       -1.151       0.015       0.348
   full:       -1.376      -0.003       0.610       3.825
molecular quadrupole (traceless):
                xx          xy          yy          xz          yz          zz
 q only:       -6.715       3.747       3.062       1.678      -0.908       3.653
  q+dip:       -8.908       3.228       4.225       4.376      -1.546       4.683
   full:       -9.998       3.108       5.422       4.961      -1.237       4.575


           -------------------------------------------------
          | TOTAL ENERGY              -20.833050066626 Eh   |
          | GRADIENT NORM               0.003906558959 Eh/α |
          | HOMO-LUMO GAP               0.153234857213 eV   |
           -------------------------------------------------

------------------------------------------------------------------------
 * finished run on 2021/06/02 at 10:00:07.946     
------------------------------------------------------------------------
 total:
 * wall-time:     0 d,  0 h,  0 min,  0.018 sec
 *  cpu-time:     0 d,  0 h,  0 min,  0.018 sec
 * ratio c/w:     0.989 speedup
 SCF:
 * wall-time:     0 d,  0 h,  0 min,  0.010 sec
 *  cpu-time:     0 d,  0 h,  0 min,  0.010 sec
 * ratio c/w:     1.000 speedup

