      -----------------------------------------------------------      
     |                   =====================                   |     
     |                           x T B                           |     
     |                   =====================                   |     
     |                         S. Grimme                         |     
     |          Mulliken Center for Theoretical Chemistry        |     
     |                    University of Bonn                     |     
     |                 Version 6.1.4 (SAW190525)                 |     
      -----------------------------------------------------------      

   This program is distributed in the hope that it will be useful,
   but WITHOUT ANY WARRANTY; without even the implied warranty of
   MERCHANTABILITY or FITNESS FOR A PARTICULAR PURPOSE.
   
   FOR NON-COMMERCIAL, ACADEMIA USE ONLY.
   
   Cite this work as:
   S. Grimme, C. Bannwarth, P. Shushkov, J. Comput. Theory Chem., 2017,
   13, 1989-2009. DOI: 10.1021/acs.jctc.7b00118
   C. Bannwarth, S. Ehlert and S. Grimme., J. Comput. Theory Chem., 2019,
   just accepted. DOI: 10.1021/acs.jctc.8b01176
   
   for sTDA-xTB:
   S. Grimme and C. Bannwarth, J. Chem. Phys., 2016, 145, 054103.
   DOI: 10.1063/1.4959605
   
   in the mass-spec context:
   V. Asgeirsson, C. Bauer and S. Grimme, Chem. Sci., 2017, 8, 4879.
   DOI: 10.1039/c7sc00601b
   
   for metadynamics refer to:
   S. Grimme, J. Chem. Theory Comput. Article ASAP, 2019,
   DOI: 10.1021/acs.jctc.9b00143
   
   with help from (in alphabetical order)
   C. Bannwarth, F. Bohle, G. Brandenburg, E. Caldeweyher, M. Checinski,
   S. Dohm, S. Ehlert, S. Ehrlich, F. März, H. Neugebauer, J. Pisarek,
   P. Pracht, P. Shushkov, and S. Spicher.
   
 * started run on 2021/06/02 at 10:00:08.154     

           -------------------------------------------------
          |                Calculation Setup                |
           -------------------------------------------------

          program call               : /groups/kemi/koerstz/opt/xtb/6.1/bin/xtb 57.xyz --gfn2 --acc 0.2 --chrg 0
          hostname                   : node305
          coordinate file            : 57.xyz
          omp threads                :                     1
          number of atoms            :                     9
          number of electrons        :                    36
          charge                     :                     0
          spin                       :                   0.0
          first test random number   :      0.31608440022318


########################################################################
# WARNING! Please study the warnings concerning your input carefully
#  - XTBPATH is not set, using XTBHOME instead
########################################################################

           ------------------------------------------------- 
          |                 G F N 2 - x T B                 |
          | Geometry, Frequencies, Noncovalent interactions |
          |            JCTC 2018 parametrisation            |
           ------------------------------------------------- 
             k(s)              :                1.8500
             k(p)              :                2.2300
             k(d)              :                2.2300
             k(f)              :                2.0000
             kEN (H0ij)        :               -2.0000
             D4 a1             :                0.5200
             D4 a2             :                5.0000
             D4 s6             :                1.0000
             D4 s8             :                2.7000
             D4 s9             :                5.0000
             alphaj            :                2.0000

  Z AO/shell   Hii/eV     exponent
  1     Wed Apr 25 08:07:45 CEST 2018   EN: 2.200 GM2: 0.406  GM3: 0.0800  RAES: 1.40
     1s    -10.707211    1.230000
  6     Wed Apr 25 08:07:45 CEST 2018   EN: 2.550 GM2: 0.538  GM3: 0.1500  RAES: 3.00
     2s    -13.970922    2.096432
     2p    -10.063292    1.800000
  7     Wed Apr 25 08:07:45 CEST 2018   EN: 3.040 GM2: 0.461  GM3:-0.0640  RAES: 1.90
     2s    -16.686243    2.339881
     2p    -12.523956    2.014332
  8     Wed Apr 25 08:07:45 CEST 2018   EN: 3.440 GM2: 0.452  GM3:-0.0517  RAES: 1.80
     2s    -20.229985    2.439742
     2p    -15.503117    2.137023


            Z     q(EN)     CN     RAES       Cart. coordinates
     1  N   5.0   -0.42    2.02    1.90    -1.03320    -0.20640    -2.42330
     2  C   4.0    0.31    3.01    3.02    -0.81071    -1.54093    -0.40310
     3  N   5.0   -0.15    2.03    1.90    -2.87691    -2.16328     0.91437
     4  N   5.0   -0.15    1.00    1.90    -4.91259    -2.60015     1.45369
     5  O   6.0   -0.11    1.00    1.80     5.77079    -2.82085    -0.24484
     6  N   5.0   -0.14    2.01    1.90     3.53740    -2.47910    -0.65626
     7  C   4.0    0.14    3.01    3.02     1.56295    -2.29125     0.71133
     8  H   1.0    0.33    1.00    1.43    -2.79603     0.32525    -2.94276
     9  H   1.0    0.18    0.99    1.43     1.51308    -2.87550     2.68818

           ------------------------------------------------- 
          |        Self-Consistent Charge Iterations        |
           ------------------------------------------------- 
q/qsh data taken from xtbrestart
CAMM data taken from xtbrestart

          ...................................................
          :                      SETUP                      :
          :.................................................:
          :  # basis functions                  30          :
          :  # atomic orbitals                  30          :
          :  # shells                           16          :
          :  # electrons                        36          :
          :  max. iterations                   250          :
          :  Hamiltonian                  GFN2-xTB          :
          :  restarted?                       true          :
          :  GBSA solvation                  false          :
          :  PC potential                    false          :
          :  electronic temp.          300.0000000     K    :
          :  accuracy                    0.2000000          :
          :  -> integral cutoff          0.3198970E+02      :
          :  -> integral neglect         0.2000000E-08      :
          :  -> SCF convergence          0.2000000E-06 Eh   :
          :  -> wf. convergence          0.2000000E-04 e    :
          :  Broyden damping             0.4000000          :
          ...................................................

 iter      E             dE          RMSdq      gap      omega  full diag
   1    -20.9219671 -0.209220E+02  0.436E+00    0.88       0.0  T
   2    -18.8033211  0.211865E+01  0.119E+01    0.57       1.0  T
   3    -21.0206427 -0.221732E+01  0.262E+00    0.28       1.0  T
   4    -21.0219329 -0.129021E-02  0.206E+00    0.23       1.0  T
   5    -20.8476641  0.174269E+00  0.454E+00    0.32       1.0  T
   6    -20.9042926 -0.566285E-01  0.393E+00    0.24       1.0  T
   7    -20.9854415 -0.811489E-01  0.290E+00    0.18       1.0  T
   8    -21.0496576 -0.642161E-01  0.134E+00    0.18       1.0  T
   9    -21.0084986  0.411591E-01  0.242E+00    0.16       1.0  T
  10    -21.0679928 -0.594943E-01  0.760E-01    0.16       1.0  T
  11    -21.0736524 -0.565959E-02  0.450E-01    0.15       1.0  T
  12    -21.0731564  0.495967E-03  0.513E-01    0.15       1.0  T
  13    -21.0760823 -0.292583E-02  0.186E-01    0.15       1.0  T
  14    -21.0761598 -0.774884E-04  0.169E-01    0.15       1.0  T
  15    -21.0764967 -0.336979E-03  0.638E-02    0.15       1.0  T
  16    -21.0765329 -0.361924E-04  0.366E-02    0.15       1.0  T
  17    -21.0765510 -0.181170E-04  0.160E-03    0.15      20.9  T
  18    -21.0765507  0.349386E-06  0.542E-03    0.15       6.2  T
  19    -21.0765510 -0.275336E-06  0.261E-03    0.15      12.8  T
  20    -21.0765510 -0.776670E-07  0.104E-03    0.15      32.1  T
  21    -21.0765511 -0.138125E-07  0.198E-04    0.15     168.7  T
  22    -21.0765511 -0.487621E-09  0.248E-05    0.15    1342.8  T

   *** convergence criteria satisfied after 22 iterations ***

         #    Occupation            Energy/Eh            Energy/eV
      -------------------------------------------------------------
         1        2.0000           -0.7529636             -20.4892
       ...           ...                  ...                  ...
        12        2.0000           -0.5508391             -14.9891
        13        2.0000           -0.5266624             -14.3312
        14        2.0000           -0.5079916             -13.8232
        15        2.0000           -0.5034677             -13.7001
        16        2.0000           -0.4327095             -11.7746
        17        2.0000           -0.4250467             -11.5661
        18        1.8980           -0.3666144              -9.9761 (HOMO)
        19        0.1020           -0.3610589              -9.8249 (LUMO)
        20                         -0.3447340              -9.3807
        21                         -0.2828374              -7.6964
        22                         -0.1860819              -5.0635
        23                          0.0258607               0.7037
       ...                                ...                  ...
        30                          0.8403615              22.8674
      -------------------------------------------------------------
                  HL-Gap            0.0055555 Eh            0.1512 eV
             Fermi-level           -0.3638367 Eh           -9.9005 eV

 SCC (total)                   0 d,  0 h,  0 min,  0.009 sec
 SCC setup                      ...        0 min,  0.000 sec (  1.392%)
 Dispersion                     ...        0 min,  0.000 sec (  0.661%)
 integral evaluation            ...        0 min,  0.001 sec ( 11.260%)
 zeroth order Hamiltonian       ...        0 min,  0.000 sec (  0.360%)
 iterations                     ...        0 min,  0.006 sec ( 64.110%)
 molecular gradient             ...        0 min,  0.002 sec ( 20.144%)
 printout                       ...        0 min,  0.000 sec (  1.729%)

         :::::::::::::::::::::::::::::::::::::::::::::::::::::
         ::                     SUMMARY                     ::
         :::::::::::::::::::::::::::::::::::::::::::::::::::::
         :: total energy              -20.833058679144 Eh   ::
         :: gradient norm               0.002005515294 Eh/α ::
         :: HOMO-LUMO gap               0.151172761922 eV   ::
         ::.................................................::
         :: SCC energy                -21.076551059290 Eh   ::
         :: -> isotropic ES             0.027358866865 Eh   ::
         :: -> anisotropic ES           0.003995543084 Eh   ::
         :: -> anisotropic XC           0.024846939623 Eh   ::
         :: -> dispersion              -0.005504599282 Eh   ::
         :: repulsion energy            0.243491255305 Eh   ::
         :: add. restraining            0.000000000000 Eh   ::
         :::::::::::::::::::::::::::::::::::::::::::::::::::::

           -------------------------------------------------
          |                Property Printout                |
           -------------------------------------------------

    * Orbital Energies and Occupations

         #    Occupation            Energy/Eh            Energy/eV
      -------------------------------------------------------------
         1        2.0000           -0.7529636             -20.4892
       ...           ...                  ...                  ...
         6        2.0000           -0.6333188             -17.2335
         7        2.0000           -0.6179148             -16.8143
         8        2.0000           -0.6043515             -16.4452
         9        2.0000           -0.5933231             -16.1451
        10        2.0000           -0.5847432             -15.9117
        11        2.0000           -0.5660066             -15.4018
        12        2.0000           -0.5508391             -14.9891
        13        2.0000           -0.5266624             -14.3312
        14        2.0000           -0.5079916             -13.8232
        15        2.0000           -0.5034677             -13.7001
        16        2.0000           -0.4327095             -11.7746
        17        2.0000           -0.4250467             -11.5661
        18        1.8980           -0.3666144              -9.9761 (HOMO)
        19        0.1020           -0.3610589              -9.8249 (LUMO)
        20                         -0.3447340              -9.3807
        21                         -0.2828374              -7.6964
        22                         -0.1860819              -5.0635
        23                          0.0258607               0.7037
        24                          0.0489303               1.3315
        25                          0.1631910               4.4407
        26                          0.1948114               5.3011
        27                          0.3334911               9.0748
        28                          0.4662767              12.6880
        29                          0.6017641              16.3748
        30                          0.8403615              22.8674
      -------------------------------------------------------------
                  HL-Gap            0.0055555 Eh            0.1512 eV
             Fermi-level           -0.3638367 Eh           -9.9005 eV

   #   Z        covCN         q      C6AA      α(0)
   1   7 N      1.793    -0.304    28.704     7.936
   2   6 C      2.814     0.152    24.698     8.142
   3   7 N      1.921     0.137    19.522     6.551
   4   7 N      0.984    -0.085    22.535     6.828
   5   8 O      0.926    -0.272    19.256     5.885
   6   7 N      1.845     0.168    19.022     6.464
   7   6 C      2.834    -0.028    28.695     8.778
   8   1 H      0.860     0.159     1.341     1.814
   9   1 H      0.924     0.073     2.054     2.242

 Mol. C6AA /au·bohr⁶  :       1304.964670
 Mol. C8AA /au·bohr⁸  :      29807.043790
 Mol. α(0) /au        :         54.639764


Wiberg/Mayer (AO) data.
largest (>0.10) Wiberg bond orders for each atom
          total WBO             WBO to atom ...
     1  N   3.095        C    2 1.533    H    8 0.944    N    4 0.165    O    5 0.131    N    3 0.123    N    6 0.122
     2  C   3.936        N    1 1.533    N    3 1.124    C    7 1.086    N    4 0.113
     3  N   3.696        N    4 2.277    C    2 1.124    N    1 0.123
     4  N   2.769        N    3 2.277    N    1 0.165    N    6 0.152    C    2 0.113
     5  O   1.982        N    6 1.493    C    7 0.238    N    1 0.131
     6  N   3.466        C    7 1.583    O    5 1.493    N    4 0.152    N    1 0.122
     7  C   3.944        N    6 1.583    C    2 1.086    H    9 0.913    O    5 0.238
     8  H   0.975        N    1 0.944
     9  H   0.984        C    7 0.913

molecular dipole:
                 x           y           z       tot (Debye)
 q only:       -1.140       0.010       0.341
   full:       -1.365      -0.010       0.601       3.792
molecular quadrupole (traceless):
                xx          xy          yy          xz          yz          zz
 q only:       -6.691       3.731       3.071       1.654      -0.888       3.620
  q+dip:       -8.892       3.226       4.251       4.353      -1.524       4.641
   full:       -9.987       3.118       5.450       4.938      -1.209       4.537


           -------------------------------------------------
          | TOTAL ENERGY              -20.833058679144 Eh   |
          | GRADIENT NORM               0.002005515294 Eh/α |
          | HOMO-LUMO GAP               0.151172761922 eV   |
           -------------------------------------------------

------------------------------------------------------------------------
 * finished run on 2021/06/02 at 10:00:08.172     
------------------------------------------------------------------------
 total:
 * wall-time:     0 d,  0 h,  0 min,  0.017 sec
 *  cpu-time:     0 d,  0 h,  0 min,  0.016 sec
 * ratio c/w:     0.974 speedup
 SCF:
 * wall-time:     0 d,  0 h,  0 min,  0.009 sec
 *  cpu-time:     0 d,  0 h,  0 min,  0.009 sec
 * ratio c/w:     1.000 speedup

