      -----------------------------------------------------------      
     |                   =====================                   |     
     |                           x T B                           |     
     |                   =====================                   |     
     |                         S. Grimme                         |     
     |          Mulliken Center for Theoretical Chemistry        |     
     |                    University of Bonn                     |     
     |                 Version 6.1.4 (SAW190525)                 |     
      -----------------------------------------------------------      

   This program is distributed in the hope that it will be useful,
   but WITHOUT ANY WARRANTY; without even the implied warranty of
   MERCHANTABILITY or FITNESS FOR A PARTICULAR PURPOSE.
   
   FOR NON-COMMERCIAL, ACADEMIA USE ONLY.
   
   Cite this work as:
   S. Grimme, C. Bannwarth, P. Shushkov, J. Comput. Theory Chem., 2017,
   13, 1989-2009. DOI: 10.1021/acs.jctc.7b00118
   C. Bannwarth, S. Ehlert and S. Grimme., J. Comput. Theory Chem., 2019,
   just accepted. DOI: 10.1021/acs.jctc.8b01176
   
   for sTDA-xTB:
   S. Grimme and C. Bannwarth, J. Chem. Phys., 2016, 145, 054103.
   DOI: 10.1063/1.4959605
   
   in the mass-spec context:
   V. Asgeirsson, C. Bauer and S. Grimme, Chem. Sci., 2017, 8, 4879.
   DOI: 10.1039/c7sc00601b
   
   for metadynamics refer to:
   S. Grimme, J. Chem. Theory Comput. Article ASAP, 2019,
   DOI: 10.1021/acs.jctc.9b00143
   
   with help from (in alphabetical order)
   C. Bannwarth, F. Bohle, G. Brandenburg, E. Caldeweyher, M. Checinski,
   S. Dohm, S. Ehlert, S. Ehrlich, F. März, H. Neugebauer, J. Pisarek,
   P. Pracht, P. Shushkov, and S. Spicher.
   
 * started run on 2021/06/02 at 10:00:08.493     

           -------------------------------------------------
          |                Calculation Setup                |
           -------------------------------------------------

          program call               : /groups/kemi/koerstz/opt/xtb/6.1/bin/xtb 58.xyz --gfn2 --acc 0.2 --chrg 0
          hostname                   : node305
          coordinate file            : 58.xyz
          omp threads                :                     1
          number of atoms            :                     9
          number of electrons        :                    36
          charge                     :                     0
          spin                       :                   0.0
          first test random number   :      0.90445013105788


########################################################################
# WARNING! Please study the warnings concerning your input carefully
#  - XTBPATH is not set, using XTBHOME instead
########################################################################

           ------------------------------------------------- 
          |                 G F N 2 - x T B                 |
          | Geometry, Frequencies, Noncovalent interactions |
          |            JCTC 2018 parametrisation            |
           ------------------------------------------------- 
             k(s)              :                1.8500
             k(p)              :                2.2300
             k(d)              :                2.2300
             k(f)              :                2.0000
             kEN (H0ij)        :               -2.0000
             D4 a1             :                0.5200
             D4 a2             :                5.0000
             D4 s6             :                1.0000
             D4 s8             :                2.7000
             D4 s9             :                5.0000
             alphaj            :                2.0000

  Z AO/shell   Hii/eV     exponent
  1     Wed Apr 25 08:07:45 CEST 2018   EN: 2.200 GM2: 0.406  GM3: 0.0800  RAES: 1.40
     1s    -10.707211    1.230000
  6     Wed Apr 25 08:07:45 CEST 2018   EN: 2.550 GM2: 0.538  GM3: 0.1500  RAES: 3.00
     2s    -13.970922    2.096432
     2p    -10.063292    1.800000
  7     Wed Apr 25 08:07:45 CEST 2018   EN: 3.040 GM2: 0.461  GM3:-0.0640  RAES: 1.90
     2s    -16.686243    2.339881
     2p    -12.523956    2.014332
  8     Wed Apr 25 08:07:45 CEST 2018   EN: 3.440 GM2: 0.452  GM3:-0.0517  RAES: 1.80
     2s    -20.229985    2.439742
     2p    -15.503117    2.137023


            Z     q(EN)     CN     RAES       Cart. coordinates
     1  N   5.0   -0.42    2.02    1.90    -1.03657    -0.20646    -2.42376
     2  C   4.0    0.31    3.01    3.02    -0.80958    -1.53962    -0.40353
     3  N   5.0   -0.15    2.03    1.90    -2.87414    -2.16364     0.91720
     4  N   5.0   -0.15    1.00    1.90    -4.91157    -2.59780     1.45130
     5  O   6.0   -0.11    1.00    1.80     5.77014    -2.82352    -0.23509
     6  N   5.0   -0.14    2.01    1.90     3.53854    -2.47729    -0.66131
     7  C   4.0    0.14    3.01    3.02     1.56456    -2.29044     0.70867
     8  H   1.0    0.33    1.00    1.43    -2.80042     0.32400    -2.94108
     9  H   1.0    0.18    0.99    1.43     1.51382    -2.87744     2.68493

           ------------------------------------------------- 
          |        Self-Consistent Charge Iterations        |
           ------------------------------------------------- 
q/qsh data taken from xtbrestart
CAMM data taken from xtbrestart

          ...................................................
          :                      SETUP                      :
          :.................................................:
          :  # basis functions                  30          :
          :  # atomic orbitals                  30          :
          :  # shells                           16          :
          :  # electrons                        36          :
          :  max. iterations                   250          :
          :  Hamiltonian                  GFN2-xTB          :
          :  restarted?                       true          :
          :  GBSA solvation                  false          :
          :  PC potential                    false          :
          :  electronic temp.          300.0000000     K    :
          :  accuracy                    0.2000000          :
          :  -> integral cutoff          0.3198970E+02      :
          :  -> integral neglect         0.2000000E-08      :
          :  -> SCF convergence          0.2000000E-06 Eh   :
          :  -> wf. convergence          0.2000000E-04 e    :
          :  Broyden damping             0.4000000          :
          ...................................................

 iter      E             dE          RMSdq      gap      omega  full diag
   1    -20.5119367 -0.205119E+02  0.805E+00    0.53       0.0  T
   2    -20.5388452 -0.269085E-01  0.895E+00    1.35       1.0  T
   3    -20.8681865 -0.329341E+00  0.544E+00    1.85       1.0  T
   4    -20.6916959  0.176491E+00  0.527E+00    0.41       1.0  T
   5    -20.9541969 -0.262501E+00  0.336E+00    0.49       1.0  T
   6    -20.8394136  0.114783E+00  0.416E+00    0.32       1.0  T
   7    -20.9855186 -0.146105E+00  0.265E+00    0.30       1.0  T
   8    -21.0744741 -0.889556E-01  0.565E-01    0.17       1.0  T
   9    -21.0744596  0.145251E-04  0.567E-01    0.17       1.0  T
  10    -21.0408520  0.336076E-01  0.162E+00    0.20       1.0  T
  11    -21.0719588 -0.311068E-01  0.563E-01    0.15       1.0  T
  12    -21.0760294 -0.407062E-02  0.147E-01    0.15       1.0  T
  13    -21.0762182 -0.188771E-03  0.846E-02    0.15       1.0  T
  14    -21.0762448 -0.266149E-04  0.728E-02    0.15       1.0  T
  15    -21.0763166 -0.718573E-04  0.896E-04    0.15      37.2  T
  16    -21.0763160  0.671603E-06  0.711E-03    0.15       4.7  T
  17    -21.0763162 -0.208277E-06  0.587E-03    0.15       5.7  T
  18    -21.0763166 -0.454054E-06  0.979E-04    0.15      34.0  T
  19    -21.0763166 -0.126042E-07  0.180E-04    0.15     185.2  T
  20    -21.0763166 -0.421398E-09  0.260E-05    0.15    1284.3  T

   *** convergence criteria satisfied after 20 iterations ***

         #    Occupation            Energy/Eh            Energy/eV
      -------------------------------------------------------------
         1        2.0000           -0.7533934             -20.5009
       ...           ...                  ...                  ...
        12        2.0000           -0.5507492             -14.9866
        13        2.0000           -0.5269356             -14.3386
        14        2.0000           -0.5082703             -13.8307
        15        2.0000           -0.5032036             -13.6929
        16        2.0000           -0.4330990             -11.7852
        17        2.0000           -0.4249015             -11.5622
        18        1.8978           -0.3669384              -9.9849 (HOMO)
        19        0.1022           -0.3613880              -9.8339 (LUMO)
        20                         -0.3451754              -9.3927
        21                         -0.2830384              -7.7019
        22                         -0.1862860              -5.0691
        23                          0.0261041               0.7103
       ...                                ...                  ...
        30                          0.8391418              22.8342
      -------------------------------------------------------------
                  HL-Gap            0.0055504 Eh            0.1510 eV
             Fermi-level           -0.3641632 Eh           -9.9094 eV

 SCC (total)                   0 d,  0 h,  0 min,  0.009 sec
 SCC setup                      ...        0 min,  0.000 sec (  1.452%)
 Dispersion                     ...        0 min,  0.000 sec (  0.640%)
 integral evaluation            ...        0 min,  0.001 sec ( 11.816%)
 zeroth order Hamiltonian       ...        0 min,  0.000 sec (  0.335%)
 iterations                     ...        0 min,  0.006 sec ( 62.649%)
 molecular gradient             ...        0 min,  0.002 sec ( 21.222%)
 printout                       ...        0 min,  0.000 sec (  1.519%)

         :::::::::::::::::::::::::::::::::::::::::::::::::::::
         ::                     SUMMARY                     ::
         :::::::::::::::::::::::::::::::::::::::::::::::::::::
         :: total energy              -20.833068292126 Eh   ::
         :: gradient norm               0.001803747411 Eh/α ::
         :: HOMO-LUMO gap               0.151033489442 eV   ::
         ::.................................................::
         :: SCC energy                -21.076316633532 Eh   ::
         :: -> isotropic ES             0.027431221832 Eh   ::
         :: -> anisotropic ES           0.003973108125 Eh   ::
         :: -> anisotropic XC           0.024831289177 Eh   ::
         :: -> dispersion              -0.005504663404 Eh   ::
         :: repulsion energy            0.243247217327 Eh   ::
         :: add. restraining            0.000000000000 Eh   ::
         :::::::::::::::::::::::::::::::::::::::::::::::::::::

           -------------------------------------------------
          |                Property Printout                |
           -------------------------------------------------

    * Orbital Energies and Occupations

         #    Occupation            Energy/Eh            Energy/eV
      -------------------------------------------------------------
         1        2.0000           -0.7533934             -20.5009
       ...           ...                  ...                  ...
         6        2.0000           -0.6332853             -17.2326
         7        2.0000           -0.6183103             -16.8251
         8        2.0000           -0.6042080             -16.4413
         9        2.0000           -0.5933647             -16.1463
        10        2.0000           -0.5843226             -15.9002
        11        2.0000           -0.5658741             -15.3982
        12        2.0000           -0.5507492             -14.9866
        13        2.0000           -0.5269356             -14.3386
        14        2.0000           -0.5082703             -13.8307
        15        2.0000           -0.5032036             -13.6929
        16        2.0000           -0.4330990             -11.7852
        17        2.0000           -0.4249015             -11.5622
        18        1.8978           -0.3669384              -9.9849 (HOMO)
        19        0.1022           -0.3613880              -9.8339 (LUMO)
        20                         -0.3451754              -9.3927
        21                         -0.2830384              -7.7019
        22                         -0.1862860              -5.0691
        23                          0.0261041               0.7103
        24                          0.0486182               1.3230
        25                          0.1626405               4.4257
        26                          0.1953615               5.3161
        27                          0.3330950               9.0640
        28                          0.4661178              12.6837
        29                          0.5984899              16.2857
        30                          0.8391418              22.8342
      -------------------------------------------------------------
                  HL-Gap            0.0055504 Eh            0.1510 eV
             Fermi-level           -0.3641632 Eh           -9.9094 eV

   #   Z        covCN         q      C6AA      α(0)
   1   7 N      1.792    -0.303    28.685     7.933
   2   6 C      2.814     0.152    24.696     8.142
   3   7 N      1.921     0.137    19.517     6.550
   4   7 N      0.984    -0.084    22.522     6.826
   5   8 O      0.926    -0.273    19.269     5.887
   6   7 N      1.845     0.167    19.042     6.467
   7   6 C      2.834    -0.028    28.688     8.777
   8   1 H      0.860     0.159     1.339     1.813
   9   1 H      0.924     0.073     2.058     2.243

 Mol. C6AA /au·bohr⁶  :       1304.944334
 Mol. C8AA /au·bohr⁸  :      29806.082804
 Mol. α(0) /au        :         54.639129


Wiberg/Mayer (AO) data.
largest (>0.10) Wiberg bond orders for each atom
          total WBO             WBO to atom ...
     1  N   3.097        C    2 1.534    H    8 0.944    N    4 0.166    O    5 0.131    N    3 0.123    N    6 0.122
     2  C   3.936        N    1 1.534    N    3 1.123    C    7 1.087    N    4 0.112
     3  N   3.695        N    4 2.278    C    2 1.123    N    1 0.123
     4  N   2.769        N    3 2.278    N    1 0.166    N    6 0.152    C    2 0.112
     5  O   1.981        N    6 1.492    C    7 0.236    N    1 0.131
     6  N   3.462        C    7 1.582    O    5 1.492    N    4 0.152    N    1 0.122
     7  C   3.944        N    6 1.582    C    2 1.087    H    9 0.913    O    5 0.236
     8  H   0.975        N    1 0.944
     9  H   0.984        C    7 0.913

molecular dipole:
                 x           y           z       tot (Debye)
 q only:       -1.153       0.014       0.338
   full:       -1.379      -0.007       0.598       3.821
molecular quadrupole (traceless):
                xx          xy          yy          xz          yz          zz
 q only:       -6.704       3.788       3.064       1.623      -0.881       3.640
  q+dip:       -8.908       3.290       4.249       4.312      -1.519       4.660
   full:      -10.001       3.185       5.451       4.892      -1.201       4.550


           -------------------------------------------------
          | TOTAL ENERGY              -20.833068292126 Eh   |
          | GRADIENT NORM               0.001803747411 Eh/α |
          | HOMO-LUMO GAP               0.151033489442 eV   |
           -------------------------------------------------

------------------------------------------------------------------------
 * finished run on 2021/06/02 at 10:00:08.510     
------------------------------------------------------------------------
 total:
 * wall-time:     0 d,  0 h,  0 min,  0.016 sec
 *  cpu-time:     0 d,  0 h,  0 min,  0.016 sec
 * ratio c/w:     0.987 speedup
 SCF:
 * wall-time:     0 d,  0 h,  0 min,  0.009 sec
 *  cpu-time:     0 d,  0 h,  0 min,  0.009 sec
 * ratio c/w:     1.000 speedup

