      -----------------------------------------------------------      
     |                   =====================                   |     
     |                           x T B                           |     
     |                   =====================                   |     
     |                         S. Grimme                         |     
     |          Mulliken Center for Theoretical Chemistry        |     
     |                    University of Bonn                     |     
     |                 Version 6.1.4 (SAW190525)                 |     
      -----------------------------------------------------------      

   This program is distributed in the hope that it will be useful,
   but WITHOUT ANY WARRANTY; without even the implied warranty of
   MERCHANTABILITY or FITNESS FOR A PARTICULAR PURPOSE.
   
   FOR NON-COMMERCIAL, ACADEMIA USE ONLY.
   
   Cite this work as:
   S. Grimme, C. Bannwarth, P. Shushkov, J. Comput. Theory Chem., 2017,
   13, 1989-2009. DOI: 10.1021/acs.jctc.7b00118
   C. Bannwarth, S. Ehlert and S. Grimme., J. Comput. Theory Chem., 2019,
   just accepted. DOI: 10.1021/acs.jctc.8b01176
   
   for sTDA-xTB:
   S. Grimme and C. Bannwarth, J. Chem. Phys., 2016, 145, 054103.
   DOI: 10.1063/1.4959605
   
   in the mass-spec context:
   V. Asgeirsson, C. Bauer and S. Grimme, Chem. Sci., 2017, 8, 4879.
   DOI: 10.1039/c7sc00601b
   
   for metadynamics refer to:
   S. Grimme, J. Chem. Theory Comput. Article ASAP, 2019,
   DOI: 10.1021/acs.jctc.9b00143
   
   with help from (in alphabetical order)
   C. Bannwarth, F. Bohle, G. Brandenburg, E. Caldeweyher, M. Checinski,
   S. Dohm, S. Ehlert, S. Ehrlich, F. März, H. Neugebauer, J. Pisarek,
   P. Pracht, P. Shushkov, and S. Spicher.
   
 * started run on 2021/06/02 at 10:00:08.325     

           -------------------------------------------------
          |                Calculation Setup                |
           -------------------------------------------------

          program call               : /groups/kemi/koerstz/opt/xtb/6.1/bin/xtb 6.xyz --gfn2 --acc 0.2 --chrg 0
          hostname                   : node305
          coordinate file            : 6.xyz
          omp threads                :                     1
          number of atoms            :                     9
          number of electrons        :                    36
          charge                     :                     0
          spin                       :                   0.0
          first test random number   :      0.82338682328718


########################################################################
# WARNING! Please study the warnings concerning your input carefully
#  - XTBPATH is not set, using XTBHOME instead
########################################################################

           ------------------------------------------------- 
          |                 G F N 2 - x T B                 |
          | Geometry, Frequencies, Noncovalent interactions |
          |            JCTC 2018 parametrisation            |
           ------------------------------------------------- 
             k(s)              :                1.8500
             k(p)              :                2.2300
             k(d)              :                2.2300
             k(f)              :                2.0000
             kEN (H0ij)        :               -2.0000
             D4 a1             :                0.5200
             D4 a2             :                5.0000
             D4 s6             :                1.0000
             D4 s8             :                2.7000
             D4 s9             :                5.0000
             alphaj            :                2.0000

  Z AO/shell   Hii/eV     exponent
  1     Wed Apr 25 08:07:45 CEST 2018   EN: 2.200 GM2: 0.406  GM3: 0.0800  RAES: 1.40
     1s    -10.707211    1.230000
  6     Wed Apr 25 08:07:45 CEST 2018   EN: 2.550 GM2: 0.538  GM3: 0.1500  RAES: 3.00
     2s    -13.970922    2.096432
     2p    -10.063292    1.800000
  7     Wed Apr 25 08:07:45 CEST 2018   EN: 3.040 GM2: 0.461  GM3:-0.0640  RAES: 1.90
     2s    -16.686243    2.339881
     2p    -12.523956    2.014332
  8     Wed Apr 25 08:07:45 CEST 2018   EN: 3.440 GM2: 0.452  GM3:-0.0517  RAES: 1.80
     2s    -20.229985    2.439742
     2p    -15.503117    2.137023


            Z     q(EN)     CN     RAES       Cart. coordinates
     1  N   5.0   -0.46    2.01    1.90    -1.40621     1.02198    -1.02894
     2  C   4.0    0.30    3.03    3.02    -0.31256    -0.96099    -0.29781
     3  N   5.0   -0.04    2.44    1.90    -1.31885    -3.43564    -0.80611
     4  N   5.0   -0.18    1.00    1.90    -3.06572    -4.39846    -1.59743
     5  O   6.0   -0.04    1.44    1.80     1.25547    -5.24517     0.59026
     6  N   5.0   -0.19    2.03    1.90     2.70024    -3.53695     1.44731
     7  C   4.0    0.12    3.04    3.02     2.01480    -1.22744     1.06841
     8  H   1.0    0.33    1.00    1.43    -3.05093     0.80198    -1.99245
     9  H   1.0    0.17    1.00    1.43     3.13855     0.32849     1.71407

           ------------------------------------------------- 
          |        Self-Consistent Charge Iterations        |
           ------------------------------------------------- 
q/qsh data taken from xtbrestart
CAMM data taken from xtbrestart

          ...................................................
          :                      SETUP                      :
          :.................................................:
          :  # basis functions                  30          :
          :  # atomic orbitals                  30          :
          :  # shells                           16          :
          :  # electrons                        36          :
          :  max. iterations                   250          :
          :  Hamiltonian                  GFN2-xTB          :
          :  restarted?                       true          :
          :  GBSA solvation                  false          :
          :  PC potential                    false          :
          :  electronic temp.          300.0000000     K    :
          :  accuracy                    0.2000000          :
          :  -> integral cutoff          0.3198970E+02      :
          :  -> integral neglect         0.2000000E-08      :
          :  -> SCF convergence          0.2000000E-06 Eh   :
          :  -> wf. convergence          0.2000000E-04 e    :
          :  Broyden damping             0.4000000          :
          ...................................................

 iter      E             dE          RMSdq      gap      omega  full diag
   1    -21.0503979 -0.210504E+02  0.677E+00    2.17       0.0  T
   2    -21.0698908 -0.194929E-01  0.398E+00    1.13       1.0  T
   3    -21.0510240  0.188668E-01  0.295E+00    1.46       1.0  T
   4    -21.0975059 -0.464818E-01  0.547E-01    0.77       1.0  T
   5    -21.0989335 -0.142757E-02  0.196E-01    0.77       1.0  T
   6    -21.0989481 -0.146572E-04  0.110E-01    0.77       1.0  T
   7    -21.0989930 -0.449159E-04  0.364E-02    0.77       1.0  T
   8    -21.0989960 -0.294046E-05  0.167E-02    0.77       2.0  T
   9    -21.0989964 -0.410702E-06  0.767E-03    0.77       4.3  T
  10    -21.0989965 -0.152391E-06  0.319E-03    0.77      10.4  T
  11    -21.0989966 -0.265499E-07  0.154E-03    0.77      21.6  T
  12    -21.0989966 -0.447730E-08  0.289E-04    0.77     115.2  T
  13    -21.0989966 -0.358114E-10  0.109E-04    0.77     306.7  T
  14    -21.0989966 -0.391829E-10  0.247E-05    0.77    1349.5  T

   *** convergence criteria satisfied after 14 iterations ***

         #    Occupation            Energy/Eh            Energy/eV
      -------------------------------------------------------------
         1        2.0000           -0.7585465             -20.6411
       ...           ...                  ...                  ...
        12        2.0000           -0.5400685             -14.6960
        13        2.0000           -0.5317697             -14.4702
        14        2.0000           -0.5023005             -13.6683
        15        2.0000           -0.4958603             -13.4930
        16        2.0000           -0.4557383             -12.4013
        17        2.0000           -0.4396888             -11.9645
        18        2.0000           -0.3978754             -10.8267 (HOMO)
        19        0.0000           -0.3696560             -10.0589 (LUMO)
        20                         -0.2941023              -8.0029
        21                         -0.2877834              -7.8310
        22                         -0.1994363              -5.4269
        23                         -0.0043053              -0.1172
       ...                                ...                  ...
        30                          0.7382788              20.0896
      -------------------------------------------------------------
                  HL-Gap            0.0282195 Eh            0.7679 eV
             Fermi-level           -0.3837657 Eh          -10.4428 eV

 SCC (total)                   0 d,  0 h,  0 min,  0.008 sec
 SCC setup                      ...        0 min,  0.000 sec (  1.621%)
 Dispersion                     ...        0 min,  0.000 sec (  0.726%)
 integral evaluation            ...        0 min,  0.001 sec ( 14.523%)
 zeroth order Hamiltonian       ...        0 min,  0.000 sec (  0.408%)
 iterations                     ...        0 min,  0.004 sec ( 54.509%)
 molecular gradient             ...        0 min,  0.002 sec ( 25.621%)
 printout                       ...        0 min,  0.000 sec (  2.162%)

         :::::::::::::::::::::::::::::::::::::::::::::::::::::
         ::                     SUMMARY                     ::
         :::::::::::::::::::::::::::::::::::::::::::::::::::::
         :: total energy              -20.866970404116 Eh   ::
         :: gradient norm               0.009742774876 Eh/α ::
         :: HOMO-LUMO gap               0.767890856569 eV   ::
         ::.................................................::
         :: SCC energy                -21.098996567633 Eh   ::
         :: -> isotropic ES             0.027840986015 Eh   ::
         :: -> anisotropic ES           0.003441793562 Eh   ::
         :: -> anisotropic XC           0.029913963619 Eh   ::
         :: -> dispersion              -0.006056473634 Eh   ::
         :: repulsion energy            0.232023021816 Eh   ::
         :: add. restraining            0.000000000000 Eh   ::
         :::::::::::::::::::::::::::::::::::::::::::::::::::::

           -------------------------------------------------
          |                Property Printout                |
           -------------------------------------------------

    * Orbital Energies and Occupations

         #    Occupation            Energy/Eh            Energy/eV
      -------------------------------------------------------------
         1        2.0000           -0.7585465             -20.6411
       ...           ...                  ...                  ...
         6        2.0000           -0.6530392             -17.7701
         7        2.0000           -0.6263535             -17.0439
         8        2.0000           -0.6157188             -16.7546
         9        2.0000           -0.5839013             -15.8888
        10        2.0000           -0.5787665             -15.7490
        11        2.0000           -0.5538203             -15.0702
        12        2.0000           -0.5400685             -14.6960
        13        2.0000           -0.5317697             -14.4702
        14        2.0000           -0.5023005             -13.6683
        15        2.0000           -0.4958603             -13.4930
        16        2.0000           -0.4557383             -12.4013
        17        2.0000           -0.4396888             -11.9645
        18        2.0000           -0.3978754             -10.8267 (HOMO)
        19        0.0000           -0.3696560             -10.0589 (LUMO)
        20                         -0.2941023              -8.0029
        21                         -0.2877834              -7.8310
        22                         -0.1994363              -5.4269
        23                         -0.0043053              -0.1172
        24                          0.0532977               1.4503
        25                          0.0913848               2.4867
        26                          0.2193469               5.9687
        27                          0.3162419               8.6054
        28                          0.4065918              11.0639
        29                          0.5455521              14.8452
        30                          0.7382788              20.0896
      -------------------------------------------------------------
                  HL-Gap            0.0282195 Eh            0.7679 eV
             Fermi-level           -0.3837657 Eh          -10.4428 eV

   #   Z        covCN         q      C6AA      α(0)
   1   7 N      1.778    -0.273    27.907     7.823
   2   6 C      2.829     0.163    24.470     8.106
   3   7 N      2.295     0.216    17.889     6.279
   4   7 N      0.985    -0.129    23.415     6.960
   5   8 O      1.330    -0.274    18.953     5.856
   6   7 N      1.861     0.035    21.298     6.840
   7   6 C      2.857    -0.001    28.057     8.682
   8   1 H      0.860     0.178     1.226     1.735
   9   1 H      0.926     0.084     1.935     2.176

 Mol. C6AA /au·bohr⁶  :       1295.742439
 Mol. C8AA /au·bohr⁸  :      29621.820968
 Mol. α(0) /au        :         54.456234


Wiberg/Mayer (AO) data.
largest (>0.10) Wiberg bond orders for each atom
          total WBO             WBO to atom ...
     1  N   3.105        C    2 1.781    H    8 0.936    N    4 0.122
     2  C   3.952        N    1 1.781    C    7 1.126    N    3 0.926
     3  N   3.782        N    4 2.311    C    2 0.926    O    5 0.370
     4  N   2.835        N    3 2.311    O    5 0.265    N    1 0.122
     5  O   2.269        N    6 1.318    N    3 0.370    N    4 0.265    C    7 0.177
     6  N   3.224        C    7 1.619    O    5 1.318
     7  C   3.968        N    6 1.619    C    2 1.126    H    9 0.959    O    5 0.177
     8  H   0.968        N    1 0.936
     9  H   0.993        C    7 0.959

molecular dipole:
                 x           y           z       tot (Debye)
 q only:       -0.087       0.871      -0.058
   full:       -0.241       0.874      -0.157       2.338
molecular quadrupole (traceless):
                xx          xy          yy          xz          yz          zz
 q only:        4.237       1.209      -7.754       1.030       0.690       3.517
  q+dip:        4.810       1.213     -10.108       0.358       0.886       5.299
   full:        4.343       1.003     -11.000      -1.045       0.879       6.657


           -------------------------------------------------
          | TOTAL ENERGY              -20.866970404116 Eh   |
          | GRADIENT NORM               0.009742774876 Eh/α |
          | HOMO-LUMO GAP               0.767890856569 eV   |
           -------------------------------------------------

------------------------------------------------------------------------
 * finished run on 2021/06/02 at 10:00:08.341     
------------------------------------------------------------------------
 total:
 * wall-time:     0 d,  0 h,  0 min,  0.015 sec
 *  cpu-time:     0 d,  0 h,  0 min,  0.015 sec
 * ratio c/w:     0.986 speedup
 SCF:
 * wall-time:     0 d,  0 h,  0 min,  0.008 sec
 *  cpu-time:     0 d,  0 h,  0 min,  0.008 sec
 * ratio c/w:     1.000 speedup

