      -----------------------------------------------------------      
     |                   =====================                   |     
     |                           x T B                           |     
     |                   =====================                   |     
     |                         S. Grimme                         |     
     |          Mulliken Center for Theoretical Chemistry        |     
     |                    University of Bonn                     |     
     |                 Version 6.1.4 (SAW190525)                 |     
      -----------------------------------------------------------      

   This program is distributed in the hope that it will be useful,
   but WITHOUT ANY WARRANTY; without even the implied warranty of
   MERCHANTABILITY or FITNESS FOR A PARTICULAR PURPOSE.
   
   FOR NON-COMMERCIAL, ACADEMIA USE ONLY.
   
   Cite this work as:
   S. Grimme, C. Bannwarth, P. Shushkov, J. Comput. Theory Chem., 2017,
   13, 1989-2009. DOI: 10.1021/acs.jctc.7b00118
   C. Bannwarth, S. Ehlert and S. Grimme., J. Comput. Theory Chem., 2019,
   just accepted. DOI: 10.1021/acs.jctc.8b01176
   
   for sTDA-xTB:
   S. Grimme and C. Bannwarth, J. Chem. Phys., 2016, 145, 054103.
   DOI: 10.1063/1.4959605
   
   in the mass-spec context:
   V. Asgeirsson, C. Bauer and S. Grimme, Chem. Sci., 2017, 8, 4879.
   DOI: 10.1039/c7sc00601b
   
   for metadynamics refer to:
   S. Grimme, J. Chem. Theory Comput. Article ASAP, 2019,
   DOI: 10.1021/acs.jctc.9b00143
   
   with help from (in alphabetical order)
   C. Bannwarth, F. Bohle, G. Brandenburg, E. Caldeweyher, M. Checinski,
   S. Dohm, S. Ehlert, S. Ehrlich, F. März, H. Neugebauer, J. Pisarek,
   P. Pracht, P. Shushkov, and S. Spicher.
   
 * started run on 2021/06/02 at 10:00:08.219     

           -------------------------------------------------
          |                Calculation Setup                |
           -------------------------------------------------

          program call               : /groups/kemi/koerstz/opt/xtb/6.1/bin/xtb 60.xyz --gfn2 --acc 0.2 --chrg 0
          hostname                   : node305
          coordinate file            : 60.xyz
          omp threads                :                     1
          number of atoms            :                     9
          number of electrons        :                    36
          charge                     :                     0
          spin                       :                   0.0
          first test random number   :      0.48028745587190


########################################################################
# WARNING! Please study the warnings concerning your input carefully
#  - XTBPATH is not set, using XTBHOME instead
########################################################################

           ------------------------------------------------- 
          |                 G F N 2 - x T B                 |
          | Geometry, Frequencies, Noncovalent interactions |
          |            JCTC 2018 parametrisation            |
           ------------------------------------------------- 
             k(s)              :                1.8500
             k(p)              :                2.2300
             k(d)              :                2.2300
             k(f)              :                2.0000
             kEN (H0ij)        :               -2.0000
             D4 a1             :                0.5200
             D4 a2             :                5.0000
             D4 s6             :                1.0000
             D4 s8             :                2.7000
             D4 s9             :                5.0000
             alphaj            :                2.0000

  Z AO/shell   Hii/eV     exponent
  1     Wed Apr 25 08:07:45 CEST 2018   EN: 2.200 GM2: 0.406  GM3: 0.0800  RAES: 1.40
     1s    -10.707211    1.230000
  6     Wed Apr 25 08:07:45 CEST 2018   EN: 2.550 GM2: 0.538  GM3: 0.1500  RAES: 3.00
     2s    -13.970922    2.096432
     2p    -10.063292    1.800000
  7     Wed Apr 25 08:07:45 CEST 2018   EN: 3.040 GM2: 0.461  GM3:-0.0640  RAES: 1.90
     2s    -16.686243    2.339881
     2p    -12.523956    2.014332
  8     Wed Apr 25 08:07:45 CEST 2018   EN: 3.440 GM2: 0.452  GM3:-0.0517  RAES: 1.80
     2s    -20.229985    2.439742
     2p    -15.503117    2.137023


            Z     q(EN)     CN     RAES       Cart. coordinates
     1  N   5.0   -0.42    2.02    1.90    -1.03906    -0.20672    -2.42504
     2  C   4.0    0.31    3.01    3.02    -0.80947    -1.53876    -0.40490
     3  N   5.0   -0.15    2.03    1.90    -2.87198    -2.16161     0.91868
     4  N   5.0   -0.15    1.00    1.90    -4.90751    -2.60071     1.45332
     5  O   6.0   -0.11    1.00    1.80     5.76988    -2.82611    -0.22673
     6  N   5.0   -0.14    2.01    1.90     3.54069    -2.47681    -0.66517
     7  C   4.0    0.14    3.01    3.02     1.56582    -2.29150     0.70510
     8  H   1.0    0.33    1.00    1.43    -2.80261     0.32652    -2.93991
     9  H   1.0    0.18    0.99    1.43     1.50903    -2.87649     2.68196

           ------------------------------------------------- 
          |        Self-Consistent Charge Iterations        |
           ------------------------------------------------- 
q/qsh data taken from xtbrestart
CAMM data taken from xtbrestart

          ...................................................
          :                      SETUP                      :
          :.................................................:
          :  # basis functions                  30          :
          :  # atomic orbitals                  30          :
          :  # shells                           16          :
          :  # electrons                        36          :
          :  max. iterations                   250          :
          :  Hamiltonian                  GFN2-xTB          :
          :  restarted?                       true          :
          :  GBSA solvation                  false          :
          :  PC potential                    false          :
          :  electronic temp.          300.0000000     K    :
          :  accuracy                    0.2000000          :
          :  -> integral cutoff          0.3198970E+02      :
          :  -> integral neglect         0.2000000E-08      :
          :  -> SCF convergence          0.2000000E-06 Eh   :
          :  -> wf. convergence          0.2000000E-04 e    :
          :  Broyden damping             0.4000000          :
          ...................................................

 iter      E             dE          RMSdq      gap      omega  full diag
   1    -21.0759062 -0.210759E+02  0.194E-01    0.15       0.0  T
   2    -20.9876633  0.882429E-01  0.255E+00    0.28       1.0  T
   3    -21.0762111 -0.885478E-01  0.121E-01    0.15       1.0  T
   4    -21.0763938 -0.182694E-03  0.329E-02    0.15       1.0  T
   5    -21.0763921  0.165792E-05  0.319E-02    0.15       1.0  T
   6    -21.0763997 -0.754517E-05  0.207E-02    0.15       1.6  T
   7    -21.0764055 -0.585972E-05  0.859E-04    0.15      38.8  T
   8    -21.0764055  0.247585E-07  0.139E-03    0.15      24.0  T
   9    -21.0764055 -0.208916E-07  0.587E-04    0.15      56.8  T
  10    -21.0764055 -0.445431E-08  0.844E-05    0.15     395.0  T
  11    -21.0764055 -0.522249E-10  0.288E-05    0.15    1158.9  T

   *** convergence criteria satisfied after 11 iterations ***

         #    Occupation            Energy/Eh            Energy/eV
      -------------------------------------------------------------
         1        2.0000           -0.7537952             -20.5118
       ...           ...                  ...                  ...
        12        2.0000           -0.5506929             -14.9851
        13        2.0000           -0.5271682             -14.3450
        14        2.0000           -0.5084525             -13.8357
        15        2.0000           -0.5029631             -13.6863
        16        2.0000           -0.4331954             -11.7878
        17        2.0000           -0.4247264             -11.5574
        18        1.8975           -0.3671273              -9.9900 (HOMO)
        19        0.1025           -0.3615829              -9.8392 (LUMO)
        20                         -0.3453016              -9.3961
        21                         -0.2830411              -7.7019
        22                         -0.1863704              -5.0714
        23                          0.0265225               0.7217
       ...                                ...                  ...
        30                          0.8402380              22.8640
      -------------------------------------------------------------
                  HL-Gap            0.0055444 Eh            0.1509 eV
             Fermi-level           -0.3643551 Eh           -9.9146 eV

 SCC (total)                   0 d,  0 h,  0 min,  0.007 sec
 SCC setup                      ...        0 min,  0.000 sec (  1.871%)
 Dispersion                     ...        0 min,  0.000 sec (  0.965%)
 integral evaluation            ...        0 min,  0.001 sec ( 15.263%)
 zeroth order Hamiltonian       ...        0 min,  0.000 sec (  0.446%)
 iterations                     ...        0 min,  0.004 sec ( 50.987%)
 molecular gradient             ...        0 min,  0.002 sec ( 27.485%)
 printout                       ...        0 min,  0.000 sec (  2.461%)

         :::::::::::::::::::::::::::::::::::::::::::::::::::::
         ::                     SUMMARY                     ::
         :::::::::::::::::::::::::::::::::::::::::::::::::::::
         :: total energy              -20.833071531727 Eh   ::
         :: gradient norm               0.001696898342 Eh/α ::
         :: HOMO-LUMO gap               0.150871859605 eV   ::
         ::.................................................::
         :: SCC energy                -21.076405541914 Eh   ::
         :: -> isotropic ES             0.027488270137 Eh   ::
         :: -> anisotropic ES           0.003969800629 Eh   ::
         :: -> anisotropic XC           0.024840811922 Eh   ::
         :: -> dispersion              -0.005504979788 Eh   ::
         :: repulsion energy            0.243332874774 Eh   ::
         :: add. restraining            0.000000000000 Eh   ::
         :::::::::::::::::::::::::::::::::::::::::::::::::::::

           -------------------------------------------------
          |                Property Printout                |
           -------------------------------------------------

    * Orbital Energies and Occupations

         #    Occupation            Energy/Eh            Energy/eV
      -------------------------------------------------------------
         1        2.0000           -0.7537952             -20.5118
       ...           ...                  ...                  ...
         6        2.0000           -0.6333301             -17.2338
         7        2.0000           -0.6187050             -16.8358
         8        2.0000           -0.6041416             -16.4395
         9        2.0000           -0.5933835             -16.1468
        10        2.0000           -0.5840837             -15.8937
        11        2.0000           -0.5657934             -15.3960
        12        2.0000           -0.5506929             -14.9851
        13        2.0000           -0.5271682             -14.3450
        14        2.0000           -0.5084525             -13.8357
        15        2.0000           -0.5029631             -13.6863
        16        2.0000           -0.4331954             -11.7878
        17        2.0000           -0.4247264             -11.5574
        18        1.8975           -0.3671273              -9.9900 (HOMO)
        19        0.1025           -0.3615829              -9.8392 (LUMO)
        20                         -0.3453016              -9.3961
        21                         -0.2830411              -7.7019
        22                         -0.1863704              -5.0714
        23                          0.0265225               0.7217
        24                          0.0487283               1.3260
        25                          0.1623727               4.4184
        26                          0.1961066               5.3363
        27                          0.3323332               9.0432
        28                          0.4663025              12.6887
        29                          0.5968629              16.2415
        30                          0.8402380              22.8640
      -------------------------------------------------------------
                  HL-Gap            0.0055444 Eh            0.1509 eV
             Fermi-level           -0.3643551 Eh           -9.9146 eV

   #   Z        covCN         q      C6AA      α(0)
   1   7 N      1.793    -0.303    28.678     7.932
   2   6 C      2.814     0.152    24.697     8.142
   3   7 N      1.921     0.138    19.507     6.549
   4   7 N      0.984    -0.084    22.512     6.824
   5   8 O      0.926    -0.273    19.277     5.888
   6   7 N      1.844     0.166    19.051     6.469
   7   6 C      2.835    -0.028    28.687     8.777
   8   1 H      0.860     0.159     1.339     1.813
   9   1 H      0.924     0.072     2.061     2.245

 Mol. C6AA /au·bohr⁶  :       1304.970636
 Mol. C8AA /au·bohr⁸  :      29806.140962
 Mol. α(0) /au        :         54.639680


Wiberg/Mayer (AO) data.
largest (>0.10) Wiberg bond orders for each atom
          total WBO             WBO to atom ...
     1  N   3.097        C    2 1.535    H    8 0.944    N    4 0.166    O    5 0.131    N    3 0.123    N    6 0.122
     2  C   3.936        N    1 1.535    N    3 1.122    C    7 1.087    N    4 0.112
     3  N   3.695        N    4 2.279    C    2 1.122    N    1 0.123
     4  N   2.770        N    3 2.279    N    1 0.166    N    6 0.151    C    2 0.112
     5  O   1.980        N    6 1.492    C    7 0.236    N    1 0.131
     6  N   3.460        C    7 1.581    O    5 1.492    N    4 0.151    N    1 0.122
     7  C   3.944        N    6 1.581    C    2 1.087    H    9 0.914    O    5 0.236
     8  H   0.974        N    1 0.944
     9  H   0.984        C    7 0.914

molecular dipole:
                 x           y           z       tot (Debye)
 q only:       -1.162       0.017       0.335
   full:       -1.389      -0.003       0.595       3.842
molecular quadrupole (traceless):
                xx          xy          yy          xz          yz          zz
 q only:       -6.699       3.824       3.053       1.591      -0.871       3.645
  q+dip:       -8.902       3.332       4.240       4.266      -1.507       4.662
   full:       -9.991       3.224       5.444       4.851      -1.187       4.547


           -------------------------------------------------
          | TOTAL ENERGY              -20.833071531727 Eh   |
          | GRADIENT NORM               0.001696898342 Eh/α |
          | HOMO-LUMO GAP               0.150871859605 eV   |
           -------------------------------------------------

------------------------------------------------------------------------
 * finished run on 2021/06/02 at 10:00:08.234     
------------------------------------------------------------------------
 total:
 * wall-time:     0 d,  0 h,  0 min,  0.015 sec
 *  cpu-time:     0 d,  0 h,  0 min,  0.015 sec
 * ratio c/w:     0.986 speedup
 SCF:
 * wall-time:     0 d,  0 h,  0 min,  0.007 sec
 *  cpu-time:     0 d,  0 h,  0 min,  0.007 sec
 * ratio c/w:     1.000 speedup

