      -----------------------------------------------------------      
     |                   =====================                   |     
     |                           x T B                           |     
     |                   =====================                   |     
     |                         S. Grimme                         |     
     |          Mulliken Center for Theoretical Chemistry        |     
     |                    University of Bonn                     |     
     |                 Version 6.1.4 (SAW190525)                 |     
      -----------------------------------------------------------      

   This program is distributed in the hope that it will be useful,
   but WITHOUT ANY WARRANTY; without even the implied warranty of
   MERCHANTABILITY or FITNESS FOR A PARTICULAR PURPOSE.
   
   FOR NON-COMMERCIAL, ACADEMIA USE ONLY.
   
   Cite this work as:
   S. Grimme, C. Bannwarth, P. Shushkov, J. Comput. Theory Chem., 2017,
   13, 1989-2009. DOI: 10.1021/acs.jctc.7b00118
   C. Bannwarth, S. Ehlert and S. Grimme., J. Comput. Theory Chem., 2019,
   just accepted. DOI: 10.1021/acs.jctc.8b01176
   
   for sTDA-xTB:
   S. Grimme and C. Bannwarth, J. Chem. Phys., 2016, 145, 054103.
   DOI: 10.1063/1.4959605
   
   in the mass-spec context:
   V. Asgeirsson, C. Bauer and S. Grimme, Chem. Sci., 2017, 8, 4879.
   DOI: 10.1039/c7sc00601b
   
   for metadynamics refer to:
   S. Grimme, J. Chem. Theory Comput. Article ASAP, 2019,
   DOI: 10.1021/acs.jctc.9b00143
   
   with help from (in alphabetical order)
   C. Bannwarth, F. Bohle, G. Brandenburg, E. Caldeweyher, M. Checinski,
   S. Dohm, S. Ehlert, S. Ehrlich, F. März, H. Neugebauer, J. Pisarek,
   P. Pracht, P. Shushkov, and S. Spicher.
   
 * started run on 2021/06/02 at 10:00:08.409     

           -------------------------------------------------
          |                Calculation Setup                |
           -------------------------------------------------

          program call               : /groups/kemi/koerstz/opt/xtb/6.1/bin/xtb 61.xyz --gfn2 --acc 0.2 --chrg 0
          hostname                   : node305
          coordinate file            : 61.xyz
          omp threads                :                     1
          number of atoms            :                     9
          number of electrons        :                    36
          charge                     :                     0
          spin                       :                   0.0
          first test random number   :      0.66282390912065


########################################################################
# WARNING! Please study the warnings concerning your input carefully
#  - XTBPATH is not set, using XTBHOME instead
########################################################################

           ------------------------------------------------- 
          |                 G F N 2 - x T B                 |
          | Geometry, Frequencies, Noncovalent interactions |
          |            JCTC 2018 parametrisation            |
           ------------------------------------------------- 
             k(s)              :                1.8500
             k(p)              :                2.2300
             k(d)              :                2.2300
             k(f)              :                2.0000
             kEN (H0ij)        :               -2.0000
             D4 a1             :                0.5200
             D4 a2             :                5.0000
             D4 s6             :                1.0000
             D4 s8             :                2.7000
             D4 s9             :                5.0000
             alphaj            :                2.0000

  Z AO/shell   Hii/eV     exponent
  1     Wed Apr 25 08:07:45 CEST 2018   EN: 2.200 GM2: 0.406  GM3: 0.0800  RAES: 1.40
     1s    -10.707211    1.230000
  6     Wed Apr 25 08:07:45 CEST 2018   EN: 2.550 GM2: 0.538  GM3: 0.1500  RAES: 3.00
     2s    -13.970922    2.096432
     2p    -10.063292    1.800000
  7     Wed Apr 25 08:07:45 CEST 2018   EN: 3.040 GM2: 0.461  GM3:-0.0640  RAES: 1.90
     2s    -16.686243    2.339881
     2p    -12.523956    2.014332
  8     Wed Apr 25 08:07:45 CEST 2018   EN: 3.440 GM2: 0.452  GM3:-0.0517  RAES: 1.80
     2s    -20.229985    2.439742
     2p    -15.503117    2.137023


            Z     q(EN)     CN     RAES       Cart. coordinates
     1  N   5.0   -0.42    2.02    1.90    -1.03940    -0.20513    -2.42504
     2  C   4.0    0.31    3.01    3.02    -0.80939    -1.53787    -0.40541
     3  N   5.0   -0.15    2.03    1.90    -2.87255    -2.16425     0.91511
     4  N   5.0   -0.15    1.00    1.90    -4.90601    -2.60115     1.45842
     5  O   6.0   -0.11    1.00    1.80     5.76938    -2.82789    -0.22274
     6  N   5.0   -0.14    2.01    1.90     3.54164    -2.47607    -0.66633
     7  C   4.0    0.14    3.01    3.02     1.56559    -2.29184     0.70338
     8  H   1.0    0.33    1.00    1.43    -2.80284     0.32781    -2.94078
     9  H   1.0    0.18    0.99    1.43     1.50835    -2.87581     2.68072

           ------------------------------------------------- 
          |        Self-Consistent Charge Iterations        |
           ------------------------------------------------- 
q/qsh data taken from xtbrestart
CAMM data taken from xtbrestart

          ...................................................
          :                      SETUP                      :
          :.................................................:
          :  # basis functions                  30          :
          :  # atomic orbitals                  30          :
          :  # shells                           16          :
          :  # electrons                        36          :
          :  max. iterations                   250          :
          :  Hamiltonian                  GFN2-xTB          :
          :  restarted?                       true          :
          :  GBSA solvation                  false          :
          :  PC potential                    false          :
          :  electronic temp.          300.0000000     K    :
          :  accuracy                    0.2000000          :
          :  -> integral cutoff          0.3198970E+02      :
          :  -> integral neglect         0.2000000E-08      :
          :  -> SCF convergence          0.2000000E-06 Eh   :
          :  -> wf. convergence          0.2000000E-04 e    :
          :  Broyden damping             0.4000000          :
          ...................................................

 iter      E             dE          RMSdq      gap      omega  full diag
   1    -20.9193647 -0.209194E+02  0.362E+00    0.82       0.0  T
   2    -18.8361717  0.208319E+01  0.119E+01    0.58       1.0  T
   3    -20.8762291 -0.204006E+01  0.424E+00    0.27       1.0  T
   4    -20.9876121 -0.111383E+00  0.252E+00    0.30       1.0  T
   5    -20.9118036  0.758085E-01  0.366E+00    0.22       1.0  T
   6    -20.9940101 -0.822064E-01  0.257E+00    0.18       1.0  T
   7    -21.0762394 -0.822293E-01  0.280E-01    0.16       1.0  T
   8    -21.0566091  0.196303E-01  0.119E+00    0.18       1.0  T
   9    -21.0689487 -0.123396E-01  0.761E-01    0.15       1.0  T
  10    -21.0764198 -0.747116E-02  0.259E-02    0.15       1.3  T
  11    -21.0761786  0.241243E-03  0.140E-01    0.15       1.0  T
  12    -21.0764203 -0.241739E-03  0.158E-02    0.15       2.1  T
  13    -21.0764225 -0.214835E-05  0.709E-03    0.15       4.7  T
  14    -21.0764225 -0.653994E-07  0.613E-03    0.15       5.4  T
  15    -21.0764224  0.160787E-06  0.640E-03    0.15       5.2  T
  16    -21.0764227 -0.369533E-06  0.382E-03    0.15       8.7  T
  17    -21.0764229 -0.178221E-06  0.117E-03    0.15      28.5  T
  18    -21.0764229 -0.179537E-07  0.606E-05    0.15     550.3  T
  19    -21.0764229  0.667555E-11  0.592E-05    0.15     563.0  T

   *** convergence criteria satisfied after 19 iterations ***

         #    Occupation            Energy/Eh            Energy/eV
      -------------------------------------------------------------
         1        2.0000           -0.7539019             -20.5147
       ...           ...                  ...                  ...
        12        2.0000           -0.5506328             -14.9835
        13        2.0000           -0.5273488             -14.3499
        14        2.0000           -0.5084797             -13.8364
        15        2.0000           -0.5028972             -13.6845
        16        2.0000           -0.4331023             -11.7853
        17        2.0000           -0.4246329             -11.5548
        18        1.8966           -0.3671630              -9.9910 (HOMO)
        19        0.1034           -0.3616359              -9.8406 (LUMO)
        20                         -0.3452884              -9.3958
        21                         -0.2830247              -7.7015
        22                         -0.1862843              -5.0691
        23                          0.0262690               0.7148
       ...                                ...                  ...
        30                          0.8413957              22.8955
      -------------------------------------------------------------
                  HL-Gap            0.0055272 Eh            0.1504 eV
             Fermi-level           -0.3643995 Eh           -9.9158 eV

 SCC (total)                   0 d,  0 h,  0 min,  0.009 sec
 SCC setup                      ...        0 min,  0.000 sec (  1.505%)
 Dispersion                     ...        0 min,  0.000 sec (  0.719%)
 integral evaluation            ...        0 min,  0.001 sec ( 12.332%)
 zeroth order Hamiltonian       ...        0 min,  0.000 sec (  0.371%)
 iterations                     ...        0 min,  0.005 sec ( 60.889%)
 molecular gradient             ...        0 min,  0.002 sec ( 21.850%)
 printout                       ...        0 min,  0.000 sec (  1.950%)

         :::::::::::::::::::::::::::::::::::::::::::::::::::::
         ::                     SUMMARY                     ::
         :::::::::::::::::::::::::::::::::::::::::::::::::::::
         :: total energy              -20.833073240247 Eh   ::
         :: gradient norm               0.001412651052 Eh/α ::
         :: HOMO-LUMO gap               0.150401623392 eV   ::
         ::.................................................::
         :: SCC energy                -21.076422941265 Eh   ::
         :: -> isotropic ES             0.027513605698 Eh   ::
         :: -> anisotropic ES           0.003970134537 Eh   ::
         :: -> anisotropic XC           0.024873142737 Eh   ::
         :: -> dispersion              -0.005504890979 Eh   ::
         :: repulsion energy            0.243348557302 Eh   ::
         :: add. restraining            0.000000000000 Eh   ::
         :::::::::::::::::::::::::::::::::::::::::::::::::::::

           -------------------------------------------------
          |                Property Printout                |
           -------------------------------------------------

    * Orbital Energies and Occupations

         #    Occupation            Energy/Eh            Energy/eV
      -------------------------------------------------------------
         1        2.0000           -0.7539019             -20.5147
       ...           ...                  ...                  ...
         6        2.0000           -0.6333858             -17.2353
         7        2.0000           -0.6188397             -16.8395
         8        2.0000           -0.6041357             -16.4394
         9        2.0000           -0.5933642             -16.1463
        10        2.0000           -0.5840093             -15.8917
        11        2.0000           -0.5657470             -15.3948
        12        2.0000           -0.5506328             -14.9835
        13        2.0000           -0.5273488             -14.3499
        14        2.0000           -0.5084797             -13.8364
        15        2.0000           -0.5028972             -13.6845
        16        2.0000           -0.4331023             -11.7853
        17        2.0000           -0.4246329             -11.5548
        18        1.8966           -0.3671630              -9.9910 (HOMO)
        19        0.1034           -0.3616359              -9.8406 (LUMO)
        20                         -0.3452884              -9.3958
        21                         -0.2830247              -7.7015
        22                         -0.1862843              -5.0691
        23                          0.0262690               0.7148
        24                          0.0486872               1.3248
        25                          0.1622172               4.4142
        26                          0.1961736               5.3382
        27                          0.3325241               9.0484
        28                          0.4665056              12.6943
        29                          0.5960311              16.2188
        30                          0.8413957              22.8955
      -------------------------------------------------------------
                  HL-Gap            0.0055272 Eh            0.1504 eV
             Fermi-level           -0.3643995 Eh           -9.9158 eV

   #   Z        covCN         q      C6AA      α(0)
   1   7 N      1.793    -0.303    28.681     7.933
   2   6 C      2.814     0.152    24.696     8.142
   3   7 N      1.921     0.138    19.502     6.548
   4   7 N      0.984    -0.084    22.507     6.824
   5   8 O      0.927    -0.273    19.278     5.888
   6   7 N      1.844     0.166    19.055     6.469
   7   6 C      2.835    -0.028    28.688     8.777
   8   1 H      0.860     0.159     1.339     1.813
   9   1 H      0.924     0.072     2.063     2.246

 Mol. C6AA /au·bohr⁶  :       1304.996991
 Mol. C8AA /au·bohr⁸  :      29806.379710
 Mol. α(0) /au        :         54.640305


Wiberg/Mayer (AO) data.
largest (>0.10) Wiberg bond orders for each atom
          total WBO             WBO to atom ...
     1  N   3.096        C    2 1.534    H    8 0.944    N    4 0.166    O    5 0.131    N    3 0.123    N    6 0.121
     2  C   3.936        N    1 1.534    N    3 1.123    C    7 1.087    N    4 0.112
     3  N   3.696        N    4 2.279    C    2 1.123    N    1 0.123
     4  N   2.770        N    3 2.279    N    1 0.166    N    6 0.151    C    2 0.112
     5  O   1.980        N    6 1.492    C    7 0.236    N    1 0.131
     6  N   3.458        C    7 1.580    O    5 1.492    N    4 0.151    N    1 0.121
     7  C   3.944        N    6 1.580    C    2 1.087    H    9 0.914    O    5 0.236
     8  H   0.975        N    1 0.944
     9  H   0.984        C    7 0.914

molecular dipole:
                 x           y           z       tot (Debye)
 q only:       -1.166       0.017       0.333
   full:       -1.394      -0.003       0.594       3.851
molecular quadrupole (traceless):
                xx          xy          yy          xz          yz          zz
 q only:       -6.690       3.845       3.049       1.580      -0.863       3.641
  q+dip:       -8.887       3.356       4.233       4.255      -1.494       4.654
   full:       -9.976       3.249       5.437       4.844      -1.172       4.539


           -------------------------------------------------
          | TOTAL ENERGY              -20.833073240247 Eh   |
          | GRADIENT NORM               0.001412651052 Eh/α |
          | HOMO-LUMO GAP               0.150401623392 eV   |
           -------------------------------------------------

------------------------------------------------------------------------
 * finished run on 2021/06/02 at 10:00:08.426     
------------------------------------------------------------------------
 total:
 * wall-time:     0 d,  0 h,  0 min,  0.017 sec
 *  cpu-time:     0 d,  0 h,  0 min,  0.016 sec
 * ratio c/w:     0.987 speedup
 SCF:
 * wall-time:     0 d,  0 h,  0 min,  0.009 sec
 *  cpu-time:     0 d,  0 h,  0 min,  0.009 sec
 * ratio c/w:     1.000 speedup

