      -----------------------------------------------------------      
     |                   =====================                   |     
     |                           x T B                           |     
     |                   =====================                   |     
     |                         S. Grimme                         |     
     |          Mulliken Center for Theoretical Chemistry        |     
     |                    University of Bonn                     |     
     |                 Version 6.1.4 (SAW190525)                 |     
      -----------------------------------------------------------      

   This program is distributed in the hope that it will be useful,
   but WITHOUT ANY WARRANTY; without even the implied warranty of
   MERCHANTABILITY or FITNESS FOR A PARTICULAR PURPOSE.
   
   FOR NON-COMMERCIAL, ACADEMIA USE ONLY.
   
   Cite this work as:
   S. Grimme, C. Bannwarth, P. Shushkov, J. Comput. Theory Chem., 2017,
   13, 1989-2009. DOI: 10.1021/acs.jctc.7b00118
   C. Bannwarth, S. Ehlert and S. Grimme., J. Comput. Theory Chem., 2019,
   just accepted. DOI: 10.1021/acs.jctc.8b01176
   
   for sTDA-xTB:
   S. Grimme and C. Bannwarth, J. Chem. Phys., 2016, 145, 054103.
   DOI: 10.1063/1.4959605
   
   in the mass-spec context:
   V. Asgeirsson, C. Bauer and S. Grimme, Chem. Sci., 2017, 8, 4879.
   DOI: 10.1039/c7sc00601b
   
   for metadynamics refer to:
   S. Grimme, J. Chem. Theory Comput. Article ASAP, 2019,
   DOI: 10.1021/acs.jctc.9b00143
   
   with help from (in alphabetical order)
   C. Bannwarth, F. Bohle, G. Brandenburg, E. Caldeweyher, M. Checinski,
   S. Dohm, S. Ehlert, S. Ehrlich, F. März, H. Neugebauer, J. Pisarek,
   P. Pracht, P. Shushkov, and S. Spicher.
   
 * started run on 2021/06/02 at 10:00:08.260     

           -------------------------------------------------
          |                Calculation Setup                |
           -------------------------------------------------

          program call               : /groups/kemi/koerstz/opt/xtb/6.1/bin/xtb 62.xyz --gfn2 --acc 0.2 --chrg 0
          hostname                   : node305
          coordinate file            : 62.xyz
          omp threads                :                     1
          number of atoms            :                     9
          number of electrons        :                    36
          charge                     :                     0
          spin                       :                   0.0
          first test random number   :      0.40811233720255


########################################################################
# WARNING! Please study the warnings concerning your input carefully
#  - XTBPATH is not set, using XTBHOME instead
########################################################################

           ------------------------------------------------- 
          |                 G F N 2 - x T B                 |
          | Geometry, Frequencies, Noncovalent interactions |
          |            JCTC 2018 parametrisation            |
           ------------------------------------------------- 
             k(s)              :                1.8500
             k(p)              :                2.2300
             k(d)              :                2.2300
             k(f)              :                2.0000
             kEN (H0ij)        :               -2.0000
             D4 a1             :                0.5200
             D4 a2             :                5.0000
             D4 s6             :                1.0000
             D4 s8             :                2.7000
             D4 s9             :                5.0000
             alphaj            :                2.0000

  Z AO/shell   Hii/eV     exponent
  1     Wed Apr 25 08:07:45 CEST 2018   EN: 2.200 GM2: 0.406  GM3: 0.0800  RAES: 1.40
     1s    -10.707211    1.230000
  6     Wed Apr 25 08:07:45 CEST 2018   EN: 2.550 GM2: 0.538  GM3: 0.1500  RAES: 3.00
     2s    -13.970922    2.096432
     2p    -10.063292    1.800000
  7     Wed Apr 25 08:07:45 CEST 2018   EN: 3.040 GM2: 0.461  GM3:-0.0640  RAES: 1.90
     2s    -16.686243    2.339881
     2p    -12.523956    2.014332
  8     Wed Apr 25 08:07:45 CEST 2018   EN: 3.440 GM2: 0.452  GM3:-0.0517  RAES: 1.80
     2s    -20.229985    2.439742
     2p    -15.503117    2.137023


            Z     q(EN)     CN     RAES       Cart. coordinates
     1  N   5.0   -0.42    2.02    1.90    -1.04182    -0.20257    -2.42408
     2  C   4.0    0.31    3.01    3.02    -0.80911    -1.53781    -0.40637
     3  N   5.0   -0.15    2.03    1.90    -2.87217    -2.16716     0.91331
     4  N   5.0   -0.15    1.00    1.90    -4.90550    -2.59944     1.46025
     5  O   6.0   -0.11    1.00    1.80     5.76970    -2.82985    -0.21656
     6  N   5.0   -0.14    2.01    1.90     3.54360    -2.47754    -0.66731
     7  C   4.0    0.14    3.01    3.02     1.56551    -2.29059     0.70056
     8  H   1.0    0.33    1.00    1.43    -2.80557     0.32757    -2.94053
     9  H   1.0    0.18    0.99    1.43     1.51014    -2.87480     2.67805

           ------------------------------------------------- 
          |        Self-Consistent Charge Iterations        |
           ------------------------------------------------- 
q/qsh data taken from xtbrestart
CAMM data taken from xtbrestart

          ...................................................
          :                      SETUP                      :
          :.................................................:
          :  # basis functions                  30          :
          :  # atomic orbitals                  30          :
          :  # shells                           16          :
          :  # electrons                        36          :
          :  max. iterations                   250          :
          :  Hamiltonian                  GFN2-xTB          :
          :  restarted?                       true          :
          :  GBSA solvation                  false          :
          :  PC potential                    false          :
          :  electronic temp.          300.0000000     K    :
          :  accuracy                    0.2000000          :
          :  -> integral cutoff          0.3198970E+02      :
          :  -> integral neglect         0.2000000E-08      :
          :  -> SCF convergence          0.2000000E-06 Eh   :
          :  -> wf. convergence          0.2000000E-04 e    :
          :  Broyden damping             0.4000000          :
          ...................................................

 iter      E             dE          RMSdq      gap      omega  full diag
   1    -20.9279547 -0.209280E+02  0.436E+00    0.87       0.0  T
   2    -18.7835592  0.214440E+01  0.119E+01    0.57       1.0  T
   3    -20.9998848 -0.221633E+01  0.287E+00    0.33       1.0  T
   4    -21.0526019 -0.527171E-01  0.149E+00    0.19       1.0  T
   5    -21.0030662  0.495357E-01  0.270E+00    0.18       1.0  T
   6    -20.9956342  0.743199E-02  0.281E+00    0.18       1.0  T
   7    -20.8602226  0.135412E+00  0.432E+00    0.25       1.0  T
   8    -20.9578235 -0.976009E-01  0.313E+00    0.18       1.0  T
   9    -21.0759528 -0.118129E+00  0.251E-01    0.15       1.0  T
  10    -21.0330850  0.428678E-01  0.188E+00    0.15       1.0  T
  11    -21.0740597 -0.409747E-01  0.464E-01    0.14       1.0  T
  12    -21.0756236 -0.156392E-02  0.275E-01    0.15       1.0  T
  13    -21.0760542 -0.430510E-03  0.185E-01    0.15       1.0  T
  14    -21.0763825 -0.328362E-03  0.774E-02    0.15       1.0  T
  15    -21.0764417 -0.592151E-04  0.200E-02    0.15       1.7  T
  16    -21.0764465 -0.478604E-05  0.685E-03    0.15       4.9  T
  17    -21.0764454  0.114028E-05  0.114E-02    0.15       2.9  T
  18    -21.0764471 -0.170780E-05  0.586E-04    0.15      56.9  T
  19    -21.0764471 -0.257112E-08  0.261E-04    0.15     127.7  T
  20    -21.0764471 -0.752955E-09  0.528E-05    0.15     631.2  T
  21    -21.0764471 -0.304432E-10  0.160E-05    0.15    2089.2  T

   *** convergence criteria satisfied after 21 iterations ***

         #    Occupation            Energy/Eh            Energy/eV
      -------------------------------------------------------------
         1        2.0000           -0.7539843             -20.5170
       ...           ...                  ...                  ...
        12        2.0000           -0.5506312             -14.9834
        13        2.0000           -0.5274382             -14.3523
        14        2.0000           -0.5085059             -13.8371
        15        2.0000           -0.5028882             -13.6843
        16        2.0000           -0.4330898             -11.7850
        17        2.0000           -0.4245563             -11.5528
        18        1.8978           -0.3672038              -9.9921 (HOMO)
        19        0.1022           -0.3616528              -9.8411 (LUMO)
        20                         -0.3453190              -9.3966
        21                         -0.2831130              -7.7039
        22                         -0.1862187              -5.0673
        23                          0.0261391               0.7113
       ...                                ...                  ...
        30                          0.8415869              22.9007
      -------------------------------------------------------------
                  HL-Gap            0.0055509 Eh            0.1510 eV
             Fermi-level           -0.3644283 Eh           -9.9166 eV

 SCC (total)                   0 d,  0 h,  0 min,  0.009 sec
 SCC setup                      ...        0 min,  0.000 sec (  1.386%)
 Dispersion                     ...        0 min,  0.000 sec (  0.656%)
 integral evaluation            ...        0 min,  0.001 sec ( 13.177%)
 zeroth order Hamiltonian       ...        0 min,  0.000 sec (  0.333%)
 iterations                     ...        0 min,  0.006 sec ( 62.254%)
 molecular gradient             ...        0 min,  0.002 sec ( 20.152%)
 printout                       ...        0 min,  0.000 sec (  1.643%)

         :::::::::::::::::::::::::::::::::::::::::::::::::::::
         ::                     SUMMARY                     ::
         :::::::::::::::::::::::::::::::::::::::::::::::::::::
         :: total energy              -20.833075641127 Eh   ::
         :: gradient norm               0.000778652533 Eh/α ::
         :: HOMO-LUMO gap               0.151048811052 eV   ::
         ::.................................................::
         :: SCC energy                -21.076447086086 Eh   ::
         :: -> isotropic ES             0.027526786846 Eh   ::
         :: -> anisotropic ES           0.003969641575 Eh   ::
         :: -> anisotropic XC           0.024874400908 Eh   ::
         :: -> dispersion              -0.005504376935 Eh   ::
         :: repulsion energy            0.243370302244 Eh   ::
         :: add. restraining            0.000000000000 Eh   ::
         :::::::::::::::::::::::::::::::::::::::::::::::::::::

           -------------------------------------------------
          |                Property Printout                |
           -------------------------------------------------

    * Orbital Energies and Occupations

         #    Occupation            Energy/Eh            Energy/eV
      -------------------------------------------------------------
         1        2.0000           -0.7539843             -20.5170
       ...           ...                  ...                  ...
         6        2.0000           -0.6334357             -17.2367
         7        2.0000           -0.6189348             -16.8421
         8        2.0000           -0.6041496             -16.4397
         9        2.0000           -0.5933788             -16.1467
        10        2.0000           -0.5839707             -15.8907
        11        2.0000           -0.5657174             -15.3940
        12        2.0000           -0.5506312             -14.9834
        13        2.0000           -0.5274382             -14.3523
        14        2.0000           -0.5085059             -13.8371
        15        2.0000           -0.5028882             -13.6843
        16        2.0000           -0.4330898             -11.7850
        17        2.0000           -0.4245563             -11.5528
        18        1.8978           -0.3672038              -9.9921 (HOMO)
        19        0.1022           -0.3616528              -9.8411 (LUMO)
        20                         -0.3453190              -9.3966
        21                         -0.2831130              -7.7039
        22                         -0.1862187              -5.0673
        23                          0.0261391               0.7113
        24                          0.0487737               1.3272
        25                          0.1621906               4.4134
        26                          0.1964267               5.3450
        27                          0.3336391               9.0788
        28                          0.4668131              12.7026
        29                          0.5945818              16.1794
        30                          0.8415869              22.9007
      -------------------------------------------------------------
                  HL-Gap            0.0055509 Eh            0.1510 eV
             Fermi-level           -0.3644283 Eh           -9.9166 eV

   #   Z        covCN         q      C6AA      α(0)
   1   7 N      1.793    -0.303    28.682     7.933
   2   6 C      2.814     0.152    24.694     8.142
   3   7 N      1.921     0.139    19.499     6.547
   4   7 N      0.984    -0.083    22.504     6.823
   5   8 O      0.927    -0.273    19.278     5.888
   6   7 N      1.844     0.166    19.061     6.470
   7   6 C      2.835    -0.028    28.687     8.777
   8   1 H      0.860     0.159     1.339     1.813
   9   1 H      0.924     0.072     2.064     2.247

 Mol. C6AA /au·bohr⁶  :       1305.002195
 Mol. C8AA /au·bohr⁸  :      29806.350798
 Mol. α(0) /au        :         54.640428


Wiberg/Mayer (AO) data.
largest (>0.10) Wiberg bond orders for each atom
          total WBO             WBO to atom ...
     1  N   3.097        C    2 1.534    H    8 0.944    N    4 0.166    O    5 0.131    N    3 0.123    N    6 0.122
     2  C   3.936        N    1 1.534    N    3 1.122    C    7 1.088    N    4 0.112
     3  N   3.696        N    4 2.280    C    2 1.122    N    1 0.123
     4  N   2.771        N    3 2.280    N    1 0.166    N    6 0.151    C    2 0.112
     5  O   1.980        N    6 1.492    C    7 0.236    N    1 0.131
     6  N   3.458        C    7 1.579    O    5 1.492    N    4 0.151    N    1 0.122
     7  C   3.944        N    6 1.579    C    2 1.088    H    9 0.914    O    5 0.236
     8  H   0.975        N    1 0.944
     9  H   0.984        C    7 0.914

molecular dipole:
                 x           y           z       tot (Debye)
 q only:       -1.168       0.016       0.331
   full:       -1.396      -0.005       0.591       3.853
molecular quadrupole (traceless):
                xx          xy          yy          xz          yz          zz
 q only:       -6.686       3.861       3.047       1.564      -0.852       3.639
  q+dip:       -8.879       3.376       4.230       4.239      -1.478       4.649
   full:       -9.970       3.272       5.435       4.826      -1.157       4.535


           -------------------------------------------------
          | TOTAL ENERGY              -20.833075641127 Eh   |
          | GRADIENT NORM               0.000778652533 Eh/α |
          | HOMO-LUMO GAP               0.151048811052 eV   |
           -------------------------------------------------

------------------------------------------------------------------------
 * finished run on 2021/06/02 at 10:00:08.278     
------------------------------------------------------------------------
 total:
 * wall-time:     0 d,  0 h,  0 min,  0.017 sec
 *  cpu-time:     0 d,  0 h,  0 min,  0.017 sec
 * ratio c/w:     0.988 speedup
 SCF:
 * wall-time:     0 d,  0 h,  0 min,  0.009 sec
 *  cpu-time:     0 d,  0 h,  0 min,  0.009 sec
 * ratio c/w:     1.000 speedup

