      -----------------------------------------------------------      
     |                   =====================                   |     
     |                           x T B                           |     
     |                   =====================                   |     
     |                         S. Grimme                         |     
     |          Mulliken Center for Theoretical Chemistry        |     
     |                    University of Bonn                     |     
     |                 Version 6.1.4 (SAW190525)                 |     
      -----------------------------------------------------------      

   This program is distributed in the hope that it will be useful,
   but WITHOUT ANY WARRANTY; without even the implied warranty of
   MERCHANTABILITY or FITNESS FOR A PARTICULAR PURPOSE.
   
   FOR NON-COMMERCIAL, ACADEMIA USE ONLY.
   
   Cite this work as:
   S. Grimme, C. Bannwarth, P. Shushkov, J. Comput. Theory Chem., 2017,
   13, 1989-2009. DOI: 10.1021/acs.jctc.7b00118
   C. Bannwarth, S. Ehlert and S. Grimme., J. Comput. Theory Chem., 2019,
   just accepted. DOI: 10.1021/acs.jctc.8b01176
   
   for sTDA-xTB:
   S. Grimme and C. Bannwarth, J. Chem. Phys., 2016, 145, 054103.
   DOI: 10.1063/1.4959605
   
   in the mass-spec context:
   V. Asgeirsson, C. Bauer and S. Grimme, Chem. Sci., 2017, 8, 4879.
   DOI: 10.1039/c7sc00601b
   
   for metadynamics refer to:
   S. Grimme, J. Chem. Theory Comput. Article ASAP, 2019,
   DOI: 10.1021/acs.jctc.9b00143
   
   with help from (in alphabetical order)
   C. Bannwarth, F. Bohle, G. Brandenburg, E. Caldeweyher, M. Checinski,
   S. Dohm, S. Ehlert, S. Ehrlich, F. März, H. Neugebauer, J. Pisarek,
   P. Pracht, P. Shushkov, and S. Spicher.
   
 * started run on 2021/06/02 at 10:00:07.560     

           -------------------------------------------------
          |                Calculation Setup                |
           -------------------------------------------------

          program call               : /groups/kemi/koerstz/opt/xtb/6.1/bin/xtb 63.xyz --gfn2 --acc 0.2 --chrg 0
          hostname                   : node305
          coordinate file            : 63.xyz
          omp threads                :                     1
          number of atoms            :                     9
          number of electrons        :                    36
          charge                     :                     0
          spin                       :                   0.0
          first test random number   :      0.36628605524745


########################################################################
# WARNING! Please study the warnings concerning your input carefully
#  - XTBPATH is not set, using XTBHOME instead
########################################################################

           ------------------------------------------------- 
          |                 G F N 2 - x T B                 |
          | Geometry, Frequencies, Noncovalent interactions |
          |            JCTC 2018 parametrisation            |
           ------------------------------------------------- 
             k(s)              :                1.8500
             k(p)              :                2.2300
             k(d)              :                2.2300
             k(f)              :                2.0000
             kEN (H0ij)        :               -2.0000
             D4 a1             :                0.5200
             D4 a2             :                5.0000
             D4 s6             :                1.0000
             D4 s8             :                2.7000
             D4 s9             :                5.0000
             alphaj            :                2.0000

  Z AO/shell   Hii/eV     exponent
  1     Wed Apr 25 08:07:45 CEST 2018   EN: 2.200 GM2: 0.406  GM3: 0.0800  RAES: 1.40
     1s    -10.707211    1.230000
  6     Wed Apr 25 08:07:45 CEST 2018   EN: 2.550 GM2: 0.538  GM3: 0.1500  RAES: 3.00
     2s    -13.970922    2.096432
     2p    -10.063292    1.800000
  7     Wed Apr 25 08:07:45 CEST 2018   EN: 3.040 GM2: 0.461  GM3:-0.0640  RAES: 1.90
     2s    -16.686243    2.339881
     2p    -12.523956    2.014332
  8     Wed Apr 25 08:07:45 CEST 2018   EN: 3.440 GM2: 0.452  GM3:-0.0517  RAES: 1.80
     2s    -20.229985    2.439742
     2p    -15.503117    2.137023


            Z     q(EN)     CN     RAES       Cart. coordinates
     1  N   5.0   -0.42    2.02    1.90    -1.04098    -0.20178    -2.42360
     2  C   4.0    0.31    3.01    3.02    -0.80899    -1.53731    -0.40580
     3  N   5.0   -0.15    2.03    1.90    -2.87320    -2.16865     0.91123
     4  N   5.0   -0.15    1.00    1.90    -4.90601    -2.59963     1.46064
     5  O   6.0   -0.11    1.00    1.80     5.76840    -2.83092    -0.21687
     6  N   5.0   -0.14    2.01    1.90     3.54243    -2.47721    -0.66705
     7  C   4.0    0.14    3.01    3.02     1.56467    -2.28981     0.70119
     8  H   1.0    0.33    1.00    1.43    -2.80503     0.32727    -2.94077
     9  H   1.0    0.18    0.99    1.43     1.51351    -2.87416     2.67834

           ------------------------------------------------- 
          |        Self-Consistent Charge Iterations        |
           ------------------------------------------------- 
q/qsh data taken from xtbrestart
CAMM data taken from xtbrestart

          ...................................................
          :                      SETUP                      :
          :.................................................:
          :  # basis functions                  30          :
          :  # atomic orbitals                  30          :
          :  # shells                           16          :
          :  # electrons                        36          :
          :  max. iterations                   250          :
          :  Hamiltonian                  GFN2-xTB          :
          :  restarted?                       true          :
          :  GBSA solvation                  false          :
          :  PC potential                    false          :
          :  electronic temp.          300.0000000     K    :
          :  accuracy                    0.2000000          :
          :  -> integral cutoff          0.3198970E+02      :
          :  -> integral neglect         0.2000000E-08      :
          :  -> SCF convergence          0.2000000E-06 Eh   :
          :  -> wf. convergence          0.2000000E-04 e    :
          :  Broyden damping             0.4000000          :
          ...................................................

 iter      E             dE          RMSdq      gap      omega  full diag
   1    -20.9348212 -0.209348E+02  0.421E+00    0.71       0.0  T
   2    -18.8119653  0.212286E+01  0.119E+01    0.55       1.0  T
   3    -21.0509207 -0.223896E+01  0.219E+00    0.23       1.0  T
   4    -20.9768632  0.740575E-01  0.275E+00    0.33       1.0  T
   5    -20.8272214  0.149642E+00  0.475E+00    0.36       1.0  T
   6    -20.9140519 -0.868305E-01  0.379E+00    0.23       1.0  T
   7    -21.0109608 -0.969089E-01  0.247E+00    0.17       1.0  T
   8    -21.0756304 -0.646696E-01  0.497E-01    0.15       1.0  T
   9    -21.0513341  0.242963E-01  0.149E+00    0.15       1.0  T
  10    -21.0718404 -0.205063E-01  0.565E-01    0.16       1.0  T
  11    -21.0761751 -0.433471E-02  0.163E-01    0.15       1.0  T
  12    -21.0764215 -0.246388E-03  0.926E-02    0.15       1.0  T
  13    -21.0759584  0.463072E-03  0.209E-01    0.15       1.0  T
  14    -21.0765419 -0.583472E-03  0.849E-03    0.15       3.9  T
  15    -21.0765396  0.232262E-05  0.142E-02    0.15       2.3  T
  16    -21.0765379  0.162414E-05  0.176E-02    0.15       1.9  T
  17    -21.0765420 -0.404434E-05  0.445E-03    0.15       7.5  T
  18    -21.0765422 -0.249160E-06  0.413E-04    0.15      80.7  T
  19    -21.0765422  0.313636E-08  0.630E-04    0.15      52.9  T
  20    -21.0765422 -0.351598E-08  0.372E-04    0.15      89.7  T
  21    -21.0765422 -0.185676E-08  0.239E-05    0.15    1392.4  T
  22    -21.0765422 -0.186517E-11  0.162E-05    0.15    2062.0  T

   *** convergence criteria satisfied after 22 iterations ***

         #    Occupation            Energy/Eh            Energy/eV
      -------------------------------------------------------------
         1        2.0000           -0.7539884             -20.5171
       ...           ...                  ...                  ...
        12        2.0000           -0.5505888             -14.9823
        13        2.0000           -0.5274825             -14.3535
        14        2.0000           -0.5084876             -13.8367
        15        2.0000           -0.5029226             -13.6852
        16        2.0000           -0.4330456             -11.7838
        17        2.0000           -0.4245566             -11.5528
        18        1.8973           -0.3671750              -9.9913 (HOMO)
        19        0.1027           -0.3616340              -9.8406 (LUMO)
        20                         -0.3452755              -9.3954
        21                         -0.2831062              -7.7037
        22                         -0.1861519              -5.0655
        23                          0.0260876               0.7099
       ...                                ...                  ...
        30                          0.8420475              22.9133
      -------------------------------------------------------------
                  HL-Gap            0.0055410 Eh            0.1508 eV
             Fermi-level           -0.3644045 Eh           -9.9160 eV

 SCC (total)                   0 d,  0 h,  0 min,  0.010 sec
 SCC setup                      ...        0 min,  0.000 sec (  1.342%)
 Dispersion                     ...        0 min,  0.000 sec (  0.592%)
 integral evaluation            ...        0 min,  0.001 sec ( 11.085%)
 zeroth order Hamiltonian       ...        0 min,  0.000 sec (  0.332%)
 iterations                     ...        0 min,  0.006 sec ( 64.318%)
 molecular gradient             ...        0 min,  0.002 sec ( 20.246%)
 printout                       ...        0 min,  0.000 sec (  1.704%)

         :::::::::::::::::::::::::::::::::::::::::::::::::::::
         ::                     SUMMARY                     ::
         :::::::::::::::::::::::::::::::::::::::::::::::::::::
         :: total energy              -20.833076747117 Eh   ::
         :: gradient norm               0.000460037212 Eh/α ::
         :: HOMO-LUMO gap               0.150778956678 eV   ::
         ::.................................................::
         :: SCC energy                -21.076542241218 Eh   ::
         :: -> isotropic ES             0.027535275435 Eh   ::
         :: -> anisotropic ES           0.003971673972 Eh   ::
         :: -> anisotropic XC           0.024878504308 Eh   ::
         :: -> dispersion              -0.005504553004 Eh   ::
         :: repulsion energy            0.243464349356 Eh   ::
         :: add. restraining            0.000000000000 Eh   ::
         :::::::::::::::::::::::::::::::::::::::::::::::::::::

           -------------------------------------------------
          |                Property Printout                |
           -------------------------------------------------

    * Orbital Energies and Occupations

         #    Occupation            Energy/Eh            Energy/eV
      -------------------------------------------------------------
         1        2.0000           -0.7539884             -20.5171
       ...           ...                  ...                  ...
         6        2.0000           -0.6334606             -17.2373
         7        2.0000           -0.6189486             -16.8424
         8        2.0000           -0.6041842             -16.4407
         9        2.0000           -0.5933847             -16.1468
        10        2.0000           -0.5839824             -15.8910
        11        2.0000           -0.5657156             -15.3939
        12        2.0000           -0.5505888             -14.9823
        13        2.0000           -0.5274825             -14.3535
        14        2.0000           -0.5084876             -13.8367
        15        2.0000           -0.5029226             -13.6852
        16        2.0000           -0.4330456             -11.7838
        17        2.0000           -0.4245566             -11.5528
        18        1.8973           -0.3671750              -9.9913 (HOMO)
        19        0.1027           -0.3616340              -9.8406 (LUMO)
        20                         -0.3452755              -9.3954
        21                         -0.2831062              -7.7037
        22                         -0.1861519              -5.0655
        23                          0.0260876               0.7099
        24                          0.0487503               1.3266
        25                          0.1624026               4.4192
        26                          0.1964040               5.3444
        27                          0.3343150               9.0972
        28                          0.4668990              12.7050
        29                          0.5944785              16.1766
        30                          0.8420475              22.9133
      -------------------------------------------------------------
                  HL-Gap            0.0055410 Eh            0.1508 eV
             Fermi-level           -0.3644045 Eh           -9.9160 eV

   #   Z        covCN         q      C6AA      α(0)
   1   7 N      1.793    -0.303    28.684     7.933
   2   6 C      2.814     0.152    24.693     8.142
   3   7 N      1.921     0.139    19.498     6.547
   4   7 N      0.984    -0.083    22.503     6.823
   5   8 O      0.927    -0.273    19.278     5.888
   6   7 N      1.844     0.166    19.062     6.471
   7   6 C      2.835    -0.028    28.687     8.777
   8   1 H      0.860     0.159     1.340     1.813
   9   1 H      0.924     0.072     2.063     2.246

 Mol. C6AA /au·bohr⁶  :       1305.000912
 Mol. C8AA /au·bohr⁸  :      29806.316810
 Mol. α(0) /au        :         54.640417


Wiberg/Mayer (AO) data.
largest (>0.10) Wiberg bond orders for each atom
          total WBO             WBO to atom ...
     1  N   3.096        C    2 1.533    H    8 0.944    N    4 0.166    O    5 0.131    N    3 0.123    N    6 0.122
     2  C   3.936        N    1 1.533    N    3 1.122    C    7 1.089    N    4 0.112
     3  N   3.696        N    4 2.280    C    2 1.122    N    1 0.123
     4  N   2.770        N    3 2.280    N    1 0.166    N    6 0.151    C    2 0.112
     5  O   1.980        N    6 1.492    C    7 0.236    N    1 0.131
     6  N   3.458        C    7 1.579    O    5 1.492    N    4 0.151    N    1 0.122
     7  C   3.944        N    6 1.579    C    2 1.089    H    9 0.914    O    5 0.236
     8  H   0.975        N    1 0.944
     9  H   0.984        C    7 0.914

molecular dipole:
                 x           y           z       tot (Debye)
 q only:       -1.168       0.016       0.332
   full:       -1.396      -0.006       0.591       3.853
molecular quadrupole (traceless):
                xx          xy          yy          xz          yz          zz
 q only:       -6.681       3.866       3.044       1.567      -0.853       3.637
  q+dip:       -8.873       3.381       4.226       4.246      -1.477       4.648
   full:       -9.964       3.278       5.429       4.833      -1.155       4.535


           -------------------------------------------------
          | TOTAL ENERGY              -20.833076747117 Eh   |
          | GRADIENT NORM               0.000460037212 Eh/α |
          | HOMO-LUMO GAP               0.150778956678 eV   |
           -------------------------------------------------

------------------------------------------------------------------------
 * finished run on 2021/06/02 at 10:00:07.578     
------------------------------------------------------------------------
 total:
 * wall-time:     0 d,  0 h,  0 min,  0.018 sec
 *  cpu-time:     0 d,  0 h,  0 min,  0.018 sec
 * ratio c/w:     0.988 speedup
 SCF:
 * wall-time:     0 d,  0 h,  0 min,  0.010 sec
 *  cpu-time:     0 d,  0 h,  0 min,  0.010 sec
 * ratio c/w:     1.000 speedup

