      -----------------------------------------------------------      
     |                   =====================                   |     
     |                           x T B                           |     
     |                   =====================                   |     
     |                         S. Grimme                         |     
     |          Mulliken Center for Theoretical Chemistry        |     
     |                    University of Bonn                     |     
     |                 Version 6.1.4 (SAW190525)                 |     
      -----------------------------------------------------------      

   This program is distributed in the hope that it will be useful,
   but WITHOUT ANY WARRANTY; without even the implied warranty of
   MERCHANTABILITY or FITNESS FOR A PARTICULAR PURPOSE.
   
   FOR NON-COMMERCIAL, ACADEMIA USE ONLY.
   
   Cite this work as:
   S. Grimme, C. Bannwarth, P. Shushkov, J. Comput. Theory Chem., 2017,
   13, 1989-2009. DOI: 10.1021/acs.jctc.7b00118
   C. Bannwarth, S. Ehlert and S. Grimme., J. Comput. Theory Chem., 2019,
   just accepted. DOI: 10.1021/acs.jctc.8b01176
   
   for sTDA-xTB:
   S. Grimme and C. Bannwarth, J. Chem. Phys., 2016, 145, 054103.
   DOI: 10.1063/1.4959605
   
   in the mass-spec context:
   V. Asgeirsson, C. Bauer and S. Grimme, Chem. Sci., 2017, 8, 4879.
   DOI: 10.1039/c7sc00601b
   
   for metadynamics refer to:
   S. Grimme, J. Chem. Theory Comput. Article ASAP, 2019,
   DOI: 10.1021/acs.jctc.9b00143
   
   with help from (in alphabetical order)
   C. Bannwarth, F. Bohle, G. Brandenburg, E. Caldeweyher, M. Checinski,
   S. Dohm, S. Ehlert, S. Ehrlich, F. März, H. Neugebauer, J. Pisarek,
   P. Pracht, P. Shushkov, and S. Spicher.
   
 * started run on 2021/06/02 at 10:00:07.361     

           -------------------------------------------------
          |                Calculation Setup                |
           -------------------------------------------------

          program call               : /groups/kemi/koerstz/opt/xtb/6.1/bin/xtb 65.xyz --gfn2 --acc 0.2 --chrg 0
          hostname                   : node305
          coordinate file            : 65.xyz
          omp threads                :                     1
          number of atoms            :                     9
          number of electrons        :                    36
          charge                     :                     0
          spin                       :                   0.0
          first test random number   :      0.12204532249544


########################################################################
# WARNING! Please study the warnings concerning your input carefully
#  - XTBPATH is not set, using XTBHOME instead
########################################################################

           ------------------------------------------------- 
          |                 G F N 2 - x T B                 |
          | Geometry, Frequencies, Noncovalent interactions |
          |            JCTC 2018 parametrisation            |
           ------------------------------------------------- 
             k(s)              :                1.8500
             k(p)              :                2.2300
             k(d)              :                2.2300
             k(f)              :                2.0000
             kEN (H0ij)        :               -2.0000
             D4 a1             :                0.5200
             D4 a2             :                5.0000
             D4 s6             :                1.0000
             D4 s8             :                2.7000
             D4 s9             :                5.0000
             alphaj            :                2.0000

  Z AO/shell   Hii/eV     exponent
  1     Wed Apr 25 08:07:45 CEST 2018   EN: 2.200 GM2: 0.406  GM3: 0.0800  RAES: 1.40
     1s    -10.707211    1.230000
  6     Wed Apr 25 08:07:45 CEST 2018   EN: 2.550 GM2: 0.538  GM3: 0.1500  RAES: 3.00
     2s    -13.970922    2.096432
     2p    -10.063292    1.800000
  7     Wed Apr 25 08:07:45 CEST 2018   EN: 3.040 GM2: 0.461  GM3:-0.0640  RAES: 1.90
     2s    -16.686243    2.339881
     2p    -12.523956    2.014332
  8     Wed Apr 25 08:07:45 CEST 2018   EN: 3.440 GM2: 0.452  GM3:-0.0517  RAES: 1.80
     2s    -20.229985    2.439742
     2p    -15.503117    2.137023


            Z     q(EN)     CN     RAES       Cart. coordinates
     1  N   5.0   -0.42    2.02    1.90    -1.04091    -0.20178    -2.42314
     2  C   4.0    0.31    3.01    3.02    -0.80896    -1.53711    -0.40516
     3  N   5.0   -0.15    2.03    1.90    -2.87350    -2.16874     0.91133
     4  N   5.0   -0.15    1.00    1.90    -4.90696    -2.59847     1.45965
     5  O   6.0   -0.11    1.00    1.80     5.76812    -2.83058    -0.21698
     6  N   5.0   -0.14    2.01    1.90     3.54236    -2.47674    -0.66718
     7  C   4.0    0.14    3.01    3.02     1.56459    -2.28977     0.70140
     8  H   1.0    0.33    1.00    1.43    -2.80508     0.32630    -2.94079
     9  H   1.0    0.18    0.99    1.43     1.51515    -2.87531     2.67818

           ------------------------------------------------- 
          |        Self-Consistent Charge Iterations        |
           ------------------------------------------------- 
q/qsh data taken from xtbrestart
CAMM data taken from xtbrestart

          ...................................................
          :                      SETUP                      :
          :.................................................:
          :  # basis functions                  30          :
          :  # atomic orbitals                  30          :
          :  # shells                           16          :
          :  # electrons                        36          :
          :  max. iterations                   250          :
          :  Hamiltonian                  GFN2-xTB          :
          :  restarted?                       true          :
          :  GBSA solvation                  false          :
          :  PC potential                    false          :
          :  electronic temp.          300.0000000     K    :
          :  accuracy                    0.2000000          :
          :  -> integral cutoff          0.3198970E+02      :
          :  -> integral neglect         0.2000000E-08      :
          :  -> SCF convergence          0.2000000E-06 Eh   :
          :  -> wf. convergence          0.2000000E-04 e    :
          :  Broyden damping             0.4000000          :
          ...................................................

 iter      E             dE          RMSdq      gap      omega  full diag
   1    -21.0575382 -0.210575E+02  0.455E+00    0.18       0.0  T
   2    -20.7044264  0.353112E+00  0.534E+00    0.49       1.0  T
   3    -20.8523075 -0.147881E+00  0.510E+00    1.76       1.0  T
   4    -20.9190098 -0.667023E-01  0.389E+00    0.91       1.0  T
   5    -20.9581658 -0.391560E-01  0.314E+00    0.48       1.0  T
   6    -21.0669984 -0.108833E+00  0.112E+00    0.19       1.0  T
   7    -21.0047545  0.622439E-01  0.238E+00    0.27       1.0  T
   8    -21.0620131 -0.572586E-01  0.114E+00    0.19       1.0  T
   9    -21.0757931 -0.137800E-01  0.240E-01    0.15       1.0  T
  10    -21.0683801  0.741302E-02  0.776E-01    0.15       1.0  T
  11    -21.0744355 -0.605541E-02  0.412E-01    0.16       1.0  T
  12    -21.0765163 -0.208079E-02  0.320E-02    0.15       1.0  T
  13    -21.0754666  0.104963E-02  0.280E-01    0.15       1.0  T
  14    -21.0757711 -0.304445E-03  0.236E-01    0.15       1.0  T
  15    -21.0764059 -0.634842E-03  0.924E-02    0.15       1.0  T
  16    -21.0765210 -0.115119E-03  0.382E-03    0.15       8.7  T
  17    -21.0765187  0.235873E-05  0.137E-02    0.15       2.4  T
  18    -21.0765210 -0.237327E-05  0.355E-03    0.15       9.4  T
  19    -21.0765212 -0.126674E-06  0.178E-03    0.15      18.7  T
  20    -21.0765212 -0.427713E-07  0.311E-05    0.15    1072.5  T
  21    -21.0765212  0.181224E-10  0.475E-05    0.15     702.3  T

   *** convergence criteria satisfied after 21 iterations ***

         #    Occupation            Energy/Eh            Energy/eV
      -------------------------------------------------------------
         1        2.0000           -0.7539622             -20.5164
       ...           ...                  ...                  ...
        12        2.0000           -0.5505931             -14.9824
        13        2.0000           -0.5274634             -14.3530
        14        2.0000           -0.5084851             -13.8366
        15        2.0000           -0.5029374             -13.6856
        16        2.0000           -0.4330617             -11.7842
        17        2.0000           -0.4245486             -11.5526
        18        1.8970           -0.3671640              -9.9910 (HOMO)
        19        0.1030           -0.3616293              -9.8404 (LUMO)
        20                         -0.3452873              -9.3957
        21                         -0.2831204              -7.7041
        22                         -0.1861251              -5.0647
        23                          0.0261023               0.7103
       ...                                ...                  ...
        30                          0.8417825              22.9061
      -------------------------------------------------------------
                  HL-Gap            0.0055348 Eh            0.1506 eV
             Fermi-level           -0.3643967 Eh           -9.9157 eV

 SCC (total)                   0 d,  0 h,  0 min,  0.009 sec
 SCC setup                      ...        0 min,  0.000 sec (  1.379%)
 Dispersion                     ...        0 min,  0.000 sec (  0.587%)
 integral evaluation            ...        0 min,  0.001 sec ( 11.666%)
 zeroth order Hamiltonian       ...        0 min,  0.000 sec (  0.360%)
 iterations                     ...        0 min,  0.006 sec ( 63.209%)
 molecular gradient             ...        0 min,  0.002 sec ( 20.628%)
 printout                       ...        0 min,  0.000 sec (  1.757%)

         :::::::::::::::::::::::::::::::::::::::::::::::::::::
         ::                     SUMMARY                     ::
         :::::::::::::::::::::::::::::::::::::::::::::::::::::
         :: total energy              -20.833076947602 Eh   ::
         :: gradient norm               0.000327710420 Eh/α ::
         :: HOMO-LUMO gap               0.150609204432 eV   ::
         ::.................................................::
         :: SCC energy                -21.076521211694 Eh   ::
         :: -> isotropic ES             0.027525775578 Eh   ::
         :: -> anisotropic ES           0.003972348659 Eh   ::
         :: -> anisotropic XC           0.024870461027 Eh   ::
         :: -> dispersion              -0.005504557573 Eh   ::
         :: repulsion energy            0.243443122966 Eh   ::
         :: add. restraining            0.000000000000 Eh   ::
         :::::::::::::::::::::::::::::::::::::::::::::::::::::

           -------------------------------------------------
          |                Property Printout                |
           -------------------------------------------------

    * Orbital Energies and Occupations

         #    Occupation            Energy/Eh            Energy/eV
      -------------------------------------------------------------
         1        2.0000           -0.7539622             -20.5164
       ...           ...                  ...                  ...
         6        2.0000           -0.6334503             -17.2371
         7        2.0000           -0.6189215             -16.8417
         8        2.0000           -0.6041958             -16.4410
         9        2.0000           -0.5933836             -16.1468
        10        2.0000           -0.5840069             -15.8916
        11        2.0000           -0.5657097             -15.3937
        12        2.0000           -0.5505931             -14.9824
        13        2.0000           -0.5274634             -14.3530
        14        2.0000           -0.5084851             -13.8366
        15        2.0000           -0.5029374             -13.6856
        16        2.0000           -0.4330617             -11.7842
        17        2.0000           -0.4245486             -11.5526
        18        1.8970           -0.3671640              -9.9910 (HOMO)
        19        0.1030           -0.3616293              -9.8404 (LUMO)
        20                         -0.3452873              -9.3957
        21                         -0.2831204              -7.7041
        22                         -0.1861251              -5.0647
        23                          0.0261023               0.7103
        24                          0.0487565               1.3267
        25                          0.1624627               4.4208
        26                          0.1965335               5.3479
        27                          0.3345396               9.1033
        28                          0.4668949              12.7049
        29                          0.5942557              16.1705
        30                          0.8417825              22.9061
      -------------------------------------------------------------
                  HL-Gap            0.0055348 Eh            0.1506 eV
             Fermi-level           -0.3643967 Eh           -9.9157 eV

   #   Z        covCN         q      C6AA      α(0)
   1   7 N      1.793    -0.303    28.684     7.933
   2   6 C      2.814     0.152    24.692     8.142
   3   7 N      1.921     0.139    19.499     6.547
   4   7 N      0.984    -0.083    22.503     6.823
   5   8 O      0.927    -0.273    19.277     5.888
   6   7 N      1.844     0.166    19.063     6.471
   7   6 C      2.835    -0.028    28.688     8.777
   8   1 H      0.860     0.159     1.340     1.813
   9   1 H      0.924     0.072     2.063     2.246

 Mol. C6AA /au·bohr⁶  :       1305.000115
 Mol. C8AA /au·bohr⁸  :      29806.318629
 Mol. α(0) /au        :         54.640420


Wiberg/Mayer (AO) data.
largest (>0.10) Wiberg bond orders for each atom
          total WBO             WBO to atom ...
     1  N   3.096        C    2 1.533    H    8 0.944    N    4 0.166    O    5 0.131    N    3 0.123    N    6 0.122
     2  C   3.936        N    1 1.533    N    3 1.122    C    7 1.089    N    4 0.112
     3  N   3.696        N    4 2.280    C    2 1.122    N    1 0.123
     4  N   2.770        N    3 2.280    N    1 0.166    N    6 0.151    C    2 0.112
     5  O   1.980        N    6 1.493    C    7 0.236    N    1 0.131
     6  N   3.457        C    7 1.579    O    5 1.493    N    4 0.151    N    1 0.122
     7  C   3.944        N    6 1.579    C    2 1.089    H    9 0.914    O    5 0.236
     8  H   0.975        N    1 0.944
     9  H   0.984        C    7 0.914

molecular dipole:
                 x           y           z       tot (Debye)
 q only:       -1.168       0.015       0.331
   full:       -1.395      -0.006       0.591       3.851
molecular quadrupole (traceless):
                xx          xy          yy          xz          yz          zz
 q only:       -6.680       3.863       3.044       1.568      -0.853       3.636
  q+dip:       -8.874       3.379       4.226       4.248      -1.477       4.648
   full:       -9.965       3.276       5.430       4.832      -1.156       4.535


           -------------------------------------------------
          | TOTAL ENERGY              -20.833076947602 Eh   |
          | GRADIENT NORM               0.000327710420 Eh/α |
          | HOMO-LUMO GAP               0.150609204432 eV   |
           -------------------------------------------------

------------------------------------------------------------------------
 * finished run on 2021/06/02 at 10:00:07.378     
------------------------------------------------------------------------
 total:
 * wall-time:     0 d,  0 h,  0 min,  0.017 sec
 *  cpu-time:     0 d,  0 h,  0 min,  0.017 sec
 * ratio c/w:     0.986 speedup
 SCF:
 * wall-time:     0 d,  0 h,  0 min,  0.009 sec
 *  cpu-time:     0 d,  0 h,  0 min,  0.009 sec
 * ratio c/w:     1.000 speedup

