      -----------------------------------------------------------      
     |                   =====================                   |     
     |                           x T B                           |     
     |                   =====================                   |     
     |                         S. Grimme                         |     
     |          Mulliken Center for Theoretical Chemistry        |     
     |                    University of Bonn                     |     
     |                 Version 6.1.4 (SAW190525)                 |     
      -----------------------------------------------------------      

   This program is distributed in the hope that it will be useful,
   but WITHOUT ANY WARRANTY; without even the implied warranty of
   MERCHANTABILITY or FITNESS FOR A PARTICULAR PURPOSE.
   
   FOR NON-COMMERCIAL, ACADEMIA USE ONLY.
   
   Cite this work as:
   S. Grimme, C. Bannwarth, P. Shushkov, J. Comput. Theory Chem., 2017,
   13, 1989-2009. DOI: 10.1021/acs.jctc.7b00118
   C. Bannwarth, S. Ehlert and S. Grimme., J. Comput. Theory Chem., 2019,
   just accepted. DOI: 10.1021/acs.jctc.8b01176
   
   for sTDA-xTB:
   S. Grimme and C. Bannwarth, J. Chem. Phys., 2016, 145, 054103.
   DOI: 10.1063/1.4959605
   
   in the mass-spec context:
   V. Asgeirsson, C. Bauer and S. Grimme, Chem. Sci., 2017, 8, 4879.
   DOI: 10.1039/c7sc00601b
   
   for metadynamics refer to:
   S. Grimme, J. Chem. Theory Comput. Article ASAP, 2019,
   DOI: 10.1021/acs.jctc.9b00143
   
   with help from (in alphabetical order)
   C. Bannwarth, F. Bohle, G. Brandenburg, E. Caldeweyher, M. Checinski,
   S. Dohm, S. Ehlert, S. Ehrlich, F. März, H. Neugebauer, J. Pisarek,
   P. Pracht, P. Shushkov, and S. Spicher.
   
 * started run on 2021/06/02 at 10:00:07.758     

           -------------------------------------------------
          |                Calculation Setup                |
           -------------------------------------------------

          program call               : /groups/kemi/koerstz/opt/xtb/6.1/bin/xtb 8.xyz --gfn2 --acc 0.2 --chrg 0
          hostname                   : node305
          coordinate file            : 8.xyz
          omp threads                :                     1
          number of atoms            :                     9
          number of electrons        :                    36
          charge                     :                     0
          spin                       :                   0.0
          first test random number   :      0.16804981664020


########################################################################
# WARNING! Please study the warnings concerning your input carefully
#  - XTBPATH is not set, using XTBHOME instead
########################################################################

           ------------------------------------------------- 
          |                 G F N 2 - x T B                 |
          | Geometry, Frequencies, Noncovalent interactions |
          |            JCTC 2018 parametrisation            |
           ------------------------------------------------- 
             k(s)              :                1.8500
             k(p)              :                2.2300
             k(d)              :                2.2300
             k(f)              :                2.0000
             kEN (H0ij)        :               -2.0000
             D4 a1             :                0.5200
             D4 a2             :                5.0000
             D4 s6             :                1.0000
             D4 s8             :                2.7000
             D4 s9             :                5.0000
             alphaj            :                2.0000

  Z AO/shell   Hii/eV     exponent
  1     Wed Apr 25 08:07:45 CEST 2018   EN: 2.200 GM2: 0.406  GM3: 0.0800  RAES: 1.40
     1s    -10.707211    1.230000
  6     Wed Apr 25 08:07:45 CEST 2018   EN: 2.550 GM2: 0.538  GM3: 0.1500  RAES: 3.00
     2s    -13.970922    2.096432
     2p    -10.063292    1.800000
  7     Wed Apr 25 08:07:45 CEST 2018   EN: 3.040 GM2: 0.461  GM3:-0.0640  RAES: 1.90
     2s    -16.686243    2.339881
     2p    -12.523956    2.014332
  8     Wed Apr 25 08:07:45 CEST 2018   EN: 3.440 GM2: 0.452  GM3:-0.0517  RAES: 1.80
     2s    -20.229985    2.439742
     2p    -15.503117    2.137023


            Z     q(EN)     CN     RAES       Cart. coordinates
     1  N   5.0   -0.46    2.00    1.90    -1.34718     1.05249    -1.10939
     2  C   4.0    0.30    3.02    3.02    -0.33621    -0.95578    -0.28687
     3  N   5.0   -0.05    2.38    1.90    -1.35514    -3.43386    -0.79300
     4  N   5.0   -0.18    1.00    1.90    -3.19582    -4.44609    -1.25198
     5  O   6.0   -0.05    1.38    1.80     1.39715    -5.25778     0.34273
     6  N   5.0   -0.19    2.03    1.90     2.76847    -3.55543     1.31682
     7  C   4.0    0.12    3.04    3.02     1.96945    -1.23884     1.12129
     8  H   1.0    0.33    1.00    1.43    -2.94170     0.84406    -2.18112
     9  H   1.0    0.17    0.99    1.43     2.99577     0.33904     1.93884

           ------------------------------------------------- 
          |        Self-Consistent Charge Iterations        |
           ------------------------------------------------- 
q/qsh data taken from xtbrestart
CAMM data taken from xtbrestart

          ...................................................
          :                      SETUP                      :
          :.................................................:
          :  # basis functions                  30          :
          :  # atomic orbitals                  30          :
          :  # shells                           16          :
          :  # electrons                        36          :
          :  max. iterations                   250          :
          :  Hamiltonian                  GFN2-xTB          :
          :  restarted?                       true          :
          :  GBSA solvation                  false          :
          :  PC potential                    false          :
          :  electronic temp.          300.0000000     K    :
          :  accuracy                    0.2000000          :
          :  -> integral cutoff          0.3198970E+02      :
          :  -> integral neglect         0.2000000E-08      :
          :  -> SCF convergence          0.2000000E-06 Eh   :
          :  -> wf. convergence          0.2000000E-04 e    :
          :  Broyden damping             0.4000000          :
          ...................................................

 iter      E             dE          RMSdq      gap      omega  full diag
   1    -21.0150053 -0.210150E+02  0.655E+00    2.12       0.0  T
   2    -21.0289822 -0.139769E-01  0.408E+00    0.89       1.0  T
   3    -21.0420680 -0.130859E-01  0.303E+00    1.46       1.0  T
   4    -21.0847051 -0.426371E-01  0.583E-01    0.74       1.0  T
   5    -21.0863886 -0.168344E-02  0.219E-01    0.74       1.0  T
   6    -21.0863974 -0.883290E-05  0.109E-01    0.74       1.0  T
   7    -21.0864508 -0.534195E-04  0.410E-02    0.74       1.0  T
   8    -21.0864545 -0.368451E-05  0.196E-02    0.74       1.7  T
   9    -21.0864551 -0.577006E-06  0.940E-03    0.74       3.5  T
  10    -21.0864554 -0.291057E-06  0.391E-03    0.74       8.5  T
  11    -21.0864554 -0.435925E-07  0.176E-03    0.74      18.9  T
  12    -21.0864554 -0.798386E-08  0.320E-04    0.74     104.1  T
  13    -21.0864554  0.299991E-10  0.136E-04    0.74     244.2  T
  14    -21.0864554 -0.110681E-09  0.298E-05    0.74    1118.4  T

   *** convergence criteria satisfied after 14 iterations ***

         #    Occupation            Energy/Eh            Energy/eV
      -------------------------------------------------------------
         1        2.0000           -0.7563466             -20.5812
       ...           ...                  ...                  ...
        12        2.0000           -0.5405710             -14.7097
        13        2.0000           -0.5297599             -14.4155
        14        2.0000           -0.5020945             -13.6627
        15        2.0000           -0.4981589             -13.5556
        16        2.0000           -0.4555476             -12.3961
        17        2.0000           -0.4371216             -11.8947
        18        2.0000           -0.3976376             -10.8203 (HOMO)
        19        0.0000           -0.3705024             -10.0819 (LUMO)
        20                         -0.2978703              -8.1055
        21                         -0.2922014              -7.9512
        22                         -0.2055485              -5.5933
        23                         -0.0119650              -0.3256
       ...                                ...                  ...
        30                          0.7203042              19.6005
      -------------------------------------------------------------
                  HL-Gap            0.0271353 Eh            0.7384 eV
             Fermi-level           -0.3840700 Eh          -10.4511 eV

 SCC (total)                   0 d,  0 h,  0 min,  0.008 sec
 SCC setup                      ...        0 min,  0.000 sec (  1.736%)
 Dispersion                     ...        0 min,  0.000 sec (  0.815%)
 integral evaluation            ...        0 min,  0.001 sec ( 14.385%)
 zeroth order Hamiltonian       ...        0 min,  0.000 sec (  0.407%)
 iterations                     ...        0 min,  0.004 sec ( 54.330%)
 molecular gradient             ...        0 min,  0.002 sec ( 25.763%)
 printout                       ...        0 min,  0.000 sec (  2.077%)

         :::::::::::::::::::::::::::::::::::::::::::::::::::::
         ::                     SUMMARY                     ::
         :::::::::::::::::::::::::::::::::::::::::::::::::::::
         :: total energy              -20.864343055699 Eh   ::
         :: gradient norm               0.028363555900 Eh/α ::
         :: HOMO-LUMO gap               0.738388129080 eV   ::
         ::.................................................::
         :: SCC energy                -21.086455425066 Eh   ::
         :: -> isotropic ES             0.027944015511 Eh   ::
         :: -> anisotropic ES           0.003307724622 Eh   ::
         :: -> anisotropic XC           0.030389445840 Eh   ::
         :: -> dispersion              -0.006051901899 Eh   ::
         :: repulsion energy            0.222108992441 Eh   ::
         :: add. restraining            0.000000000000 Eh   ::
         :::::::::::::::::::::::::::::::::::::::::::::::::::::

           -------------------------------------------------
          |                Property Printout                |
           -------------------------------------------------

    * Orbital Energies and Occupations

         #    Occupation            Energy/Eh            Energy/eV
      -------------------------------------------------------------
         1        2.0000           -0.7563466             -20.5812
       ...           ...                  ...                  ...
         6        2.0000           -0.6510413             -17.7157
         7        2.0000           -0.6258934             -17.0314
         8        2.0000           -0.6130113             -16.6809
         9        2.0000           -0.5827530             -15.8575
        10        2.0000           -0.5776602             -15.7189
        11        2.0000           -0.5521498             -15.0248
        12        2.0000           -0.5405710             -14.7097
        13        2.0000           -0.5297599             -14.4155
        14        2.0000           -0.5020945             -13.6627
        15        2.0000           -0.4981589             -13.5556
        16        2.0000           -0.4555476             -12.3961
        17        2.0000           -0.4371216             -11.8947
        18        2.0000           -0.3976376             -10.8203 (HOMO)
        19        0.0000           -0.3705024             -10.0819 (LUMO)
        20                         -0.2978703              -8.1055
        21                         -0.2922014              -7.9512
        22                         -0.2055485              -5.5933
        23                         -0.0119650              -0.3256
        24                          0.0452083               1.2302
        25                          0.0850370               2.3140
        26                          0.2064159               5.6169
        27                          0.2985786               8.1247
        28                          0.3910856              10.6420
        29                          0.5258720              14.3097
        30                          0.7203042              19.6005
      -------------------------------------------------------------
                  HL-Gap            0.0271353 Eh            0.7384 eV
             Fermi-level           -0.3840700 Eh          -10.4511 eV

   #   Z        covCN         q      C6AA      α(0)
   1   7 N      1.776    -0.274    27.919     7.825
   2   6 C      2.824     0.163    24.471     8.106
   3   7 N      2.238     0.211    18.038     6.304
   4   7 N      0.984    -0.119    23.216     6.930
   5   8 O      1.273    -0.276    19.084     5.872
   6   7 N      1.857     0.038    21.261     6.834
   7   6 C      2.852    -0.003    28.090     8.687
   8   1 H      0.859     0.176     1.239     1.744
   9   1 H      0.925     0.084     1.938     2.177

 Mol. C6AA /au·bohr⁶  :       1297.104887
 Mol. C8AA /au·bohr⁸  :      29649.167559
 Mol. α(0) /au        :         54.478195


Wiberg/Mayer (AO) data.
largest (>0.10) Wiberg bond orders for each atom
          total WBO             WBO to atom ...
     1  N   3.105        C    2 1.774    H    8 0.937    N    4 0.118
     2  C   3.950        N    1 1.774    C    7 1.130    N    3 0.925
     3  N   3.775        N    4 2.322    C    2 0.925    O    5 0.352
     4  N   2.850        N    3 2.322    O    5 0.263    N    1 0.118
     5  O   2.268        N    6 1.330    N    3 0.352    N    4 0.263    C    7 0.180
     6  N   3.225        C    7 1.603    O    5 1.330
     7  C   3.965        N    6 1.603    C    2 1.130    H    9 0.958    O    5 0.180
     8  H   0.969        N    1 0.937
     9  H   0.993        C    7 0.958

molecular dipole:
                 x           y           z       tot (Debye)
 q only:       -0.145       0.859      -0.031
   full:       -0.309       0.864      -0.149       2.364
molecular quadrupole (traceless):
                xx          xy          yy          xz          yz          zz
 q only:        3.828       1.577      -7.802       1.456       0.504       3.974
  q+dip:        4.066       1.545     -10.164       1.129       0.850       6.099
   full:        3.554       1.321     -11.084      -0.146       0.852       7.530


           -------------------------------------------------
          | TOTAL ENERGY              -20.864343055699 Eh   |
          | GRADIENT NORM               0.028363555900 Eh/α |
          | HOMO-LUMO GAP               0.738388129080 eV   |
           -------------------------------------------------

------------------------------------------------------------------------
 * finished run on 2021/06/02 at 10:00:07.774     
------------------------------------------------------------------------
 total:
 * wall-time:     0 d,  0 h,  0 min,  0.016 sec
 *  cpu-time:     0 d,  0 h,  0 min,  0.015 sec
 * ratio c/w:     0.989 speedup
 SCF:
 * wall-time:     0 d,  0 h,  0 min,  0.008 sec
 *  cpu-time:     0 d,  0 h,  0 min,  0.008 sec
 * ratio c/w:     1.000 speedup

