      -----------------------------------------------------------      
     |                   =====================                   |     
     |                           x T B                           |     
     |                   =====================                   |     
     |                         S. Grimme                         |     
     |          Mulliken Center for Theoretical Chemistry        |     
     |                    University of Bonn                     |     
     |                 Version 6.1.4 (SAW190525)                 |     
      -----------------------------------------------------------      

   This program is distributed in the hope that it will be useful,
   but WITHOUT ANY WARRANTY; without even the implied warranty of
   MERCHANTABILITY or FITNESS FOR A PARTICULAR PURPOSE.
   
   FOR NON-COMMERCIAL, ACADEMIA USE ONLY.
   
   Cite this work as:
   S. Grimme, C. Bannwarth, P. Shushkov, J. Comput. Theory Chem., 2017,
   13, 1989-2009. DOI: 10.1021/acs.jctc.7b00118
   C. Bannwarth, S. Ehlert and S. Grimme., J. Comput. Theory Chem., 2019,
   just accepted. DOI: 10.1021/acs.jctc.8b01176
   
   for sTDA-xTB:
   S. Grimme and C. Bannwarth, J. Chem. Phys., 2016, 145, 054103.
   DOI: 10.1063/1.4959605
   
   in the mass-spec context:
   V. Asgeirsson, C. Bauer and S. Grimme, Chem. Sci., 2017, 8, 4879.
   DOI: 10.1039/c7sc00601b
   
   for metadynamics refer to:
   S. Grimme, J. Chem. Theory Comput. Article ASAP, 2019,
   DOI: 10.1021/acs.jctc.9b00143
   
   with help from (in alphabetical order)
   C. Bannwarth, F. Bohle, G. Brandenburg, E. Caldeweyher, M. Checinski,
   S. Dohm, S. Ehlert, S. Ehrlich, F. März, H. Neugebauer, J. Pisarek,
   P. Pracht, P. Shushkov, and S. Spicher.
   
 * started run on 2021/06/02 at 10:00:07.120     

           -------------------------------------------------
          |                Calculation Setup                |
           -------------------------------------------------

          program call               : /groups/kemi/koerstz/opt/xtb/6.1/bin/xtb 9.xyz --gfn2 --acc 0.2 --chrg 0
          hostname                   : node305
          coordinate file            : 9.xyz
          omp threads                :                     1
          number of atoms            :                     9
          number of electrons        :                    36
          charge                     :                     0
          spin                       :                   0.0
          first test random number   :      0.12673635025164


########################################################################
# WARNING! Please study the warnings concerning your input carefully
#  - XTBPATH is not set, using XTBHOME instead
########################################################################

           ------------------------------------------------- 
          |                 G F N 2 - x T B                 |
          | Geometry, Frequencies, Noncovalent interactions |
          |            JCTC 2018 parametrisation            |
           ------------------------------------------------- 
             k(s)              :                1.8500
             k(p)              :                2.2300
             k(d)              :                2.2300
             k(f)              :                2.0000
             kEN (H0ij)        :               -2.0000
             D4 a1             :                0.5200
             D4 a2             :                5.0000
             D4 s6             :                1.0000
             D4 s8             :                2.7000
             D4 s9             :                5.0000
             alphaj            :                2.0000

  Z AO/shell   Hii/eV     exponent
  1     Wed Apr 25 08:07:45 CEST 2018   EN: 2.200 GM2: 0.406  GM3: 0.0800  RAES: 1.40
     1s    -10.707211    1.230000
  6     Wed Apr 25 08:07:45 CEST 2018   EN: 2.550 GM2: 0.538  GM3: 0.1500  RAES: 3.00
     2s    -13.970922    2.096432
     2p    -10.063292    1.800000
  7     Wed Apr 25 08:07:45 CEST 2018   EN: 3.040 GM2: 0.461  GM3:-0.0640  RAES: 1.90
     2s    -16.686243    2.339881
     2p    -12.523956    2.014332
  8     Wed Apr 25 08:07:45 CEST 2018   EN: 3.440 GM2: 0.452  GM3:-0.0517  RAES: 1.80
     2s    -20.229985    2.439742
     2p    -15.503117    2.137023


            Z     q(EN)     CN     RAES       Cart. coordinates
     1  N   5.0   -0.46    2.00    1.90    -1.30941     1.06268    -1.17217
     2  C   4.0    0.30    3.02    3.02    -0.35791    -0.94733    -0.27704
     3  N   5.0   -0.05    2.36    1.90    -1.37443    -3.44055    -0.76782
     4  N   5.0   -0.18    1.00    1.90    -3.23478    -4.47676    -1.08770
     5  O   6.0   -0.05    1.37    1.80     1.46963    -5.24127     0.20240
     6  N   5.0   -0.19    2.02    1.90     2.76938    -3.55483     1.28005
     7  C   4.0    0.12    3.03    3.02     1.94382    -1.23829     1.15037
     8  H   1.0    0.33    1.00    1.43    -2.89643     0.86974    -2.25021
     9  H   1.0    0.17    0.99    1.43     2.94491     0.31442     2.01943

           ------------------------------------------------- 
          |        Self-Consistent Charge Iterations        |
           ------------------------------------------------- 
q/qsh data taken from xtbrestart
CAMM data taken from xtbrestart

          ...................................................
          :                      SETUP                      :
          :.................................................:
          :  # basis functions                  30          :
          :  # atomic orbitals                  30          :
          :  # shells                           16          :
          :  # electrons                        36          :
          :  max. iterations                   250          :
          :  Hamiltonian                  GFN2-xTB          :
          :  restarted?                       true          :
          :  GBSA solvation                  false          :
          :  PC potential                    false          :
          :  electronic temp.          300.0000000     K    :
          :  accuracy                    0.2000000          :
          :  -> integral cutoff          0.3198970E+02      :
          :  -> integral neglect         0.2000000E-08      :
          :  -> SCF convergence          0.2000000E-06 Eh   :
          :  -> wf. convergence          0.2000000E-04 e    :
          :  Broyden damping             0.4000000          :
          ...................................................

 iter      E             dE          RMSdq      gap      omega  full diag
   1    -21.0378255 -0.210378E+02  0.623E+00    2.03       0.0  T
   2    -21.0478230 -0.999753E-02  0.378E+00    0.96       1.0  T
   3    -21.0309864  0.168366E-01  0.295E+00    1.44       1.0  T
   4    -21.0817768 -0.507904E-01  0.535E-01    0.76       1.0  T
   5    -21.0830904 -0.131361E-02  0.189E-01    0.74       1.0  T
   6    -21.0830974 -0.702412E-05  0.982E-02    0.74       1.0  T
   7    -21.0831373 -0.398689E-04  0.352E-02    0.74       1.0  T
   8    -21.0831403 -0.295846E-05  0.171E-02    0.73       1.9  T
   9    -21.0831407 -0.465657E-06  0.752E-03    0.73       4.4  T
  10    -21.0831409 -0.170683E-06  0.287E-03    0.73      11.6  T
  11    -21.0831409 -0.148359E-07  0.163E-03    0.73      20.5  T
  12    -21.0831409 -0.736858E-08  0.313E-04    0.73     106.5  T
  13    -21.0831409 -0.538023E-10  0.138E-04    0.73     241.2  T
  14    -21.0831409 -0.598952E-10  0.270E-05    0.73    1235.3  T

   *** convergence criteria satisfied after 14 iterations ***

         #    Occupation            Energy/Eh            Energy/eV
      -------------------------------------------------------------
         1        2.0000           -0.7564654             -20.5845
       ...           ...                  ...                  ...
        12        2.0000           -0.5410201             -14.7219
        13        2.0000           -0.5288523             -14.3908
        14        2.0000           -0.5025764             -13.6758
        15        2.0000           -0.4983510             -13.5608
        16        2.0000           -0.4551925             -12.3864
        17        2.0000           -0.4363435             -11.8735
        18        2.0000           -0.3967760             -10.7968 (HOMO)
        19        0.0000           -0.3697896             -10.0625 (LUMO)
        20                         -0.2989395              -8.1346
        21                         -0.2938035              -7.9948
        22                         -0.2087021              -5.6791
        23                         -0.0152081              -0.4138
       ...                                ...                  ...
        30                          0.7089599              19.2918
      -------------------------------------------------------------
                  HL-Gap            0.0269863 Eh            0.7343 eV
             Fermi-level           -0.3832828 Eh          -10.4297 eV

 SCC (total)                   0 d,  0 h,  0 min,  0.008 sec
 SCC setup                      ...        0 min,  0.000 sec (  1.735%)
 Dispersion                     ...        0 min,  0.000 sec (  0.757%)
 integral evaluation            ...        0 min,  0.001 sec ( 13.969%)
 zeroth order Hamiltonian       ...        0 min,  0.000 sec (  0.494%)
 iterations                     ...        0 min,  0.004 sec ( 53.335%)
 molecular gradient             ...        0 min,  0.002 sec ( 26.984%)
 printout                       ...        0 min,  0.000 sec (  2.281%)

         :::::::::::::::::::::::::::::::::::::::::::::::::::::
         ::                     SUMMARY                     ::
         :::::::::::::::::::::::::::::::::::::::::::::::::::::
         :: total energy              -20.862589853747 Eh   ::
         :: gradient norm               0.033624092560 Eh/α ::
         :: HOMO-LUMO gap               0.734335942755 eV   ::
         ::.................................................::
         :: SCC energy                -21.083140921354 Eh   ::
         :: -> isotropic ES             0.027667406430 Eh   ::
         :: -> anisotropic ES           0.003267317447 Eh   ::
         :: -> anisotropic XC           0.030480838649 Eh   ::
         :: -> dispersion              -0.006052354900 Eh   ::
         :: repulsion energy            0.220547561668 Eh   ::
         :: add. restraining            0.000000000000 Eh   ::
         :::::::::::::::::::::::::::::::::::::::::::::::::::::

           -------------------------------------------------
          |                Property Printout                |
           -------------------------------------------------

    * Orbital Energies and Occupations

         #    Occupation            Energy/Eh            Energy/eV
      -------------------------------------------------------------
         1        2.0000           -0.7564654             -20.5845
       ...           ...                  ...                  ...
         6        2.0000           -0.6500606             -17.6890
         7        2.0000           -0.6253280             -17.0160
         8        2.0000           -0.6120918             -16.6559
         9        2.0000           -0.5834317             -15.8760
        10        2.0000           -0.5778554             -15.7242
        11        2.0000           -0.5515739             -15.0091
        12        2.0000           -0.5410201             -14.7219
        13        2.0000           -0.5288523             -14.3908
        14        2.0000           -0.5025764             -13.6758
        15        2.0000           -0.4983510             -13.5608
        16        2.0000           -0.4551925             -12.3864
        17        2.0000           -0.4363435             -11.8735
        18        2.0000           -0.3967760             -10.7968 (HOMO)
        19        0.0000           -0.3697896             -10.0625 (LUMO)
        20                         -0.2989395              -8.1346
        21                         -0.2938035              -7.9948
        22                         -0.2087021              -5.6791
        23                         -0.0152081              -0.4138
        24                          0.0461016               1.2545
        25                          0.0901147               2.4521
        26                          0.2068222               5.6279
        27                          0.3014394               8.2026
        28                          0.3880522              10.5594
        29                          0.5221133              14.2074
        30                          0.7089599              19.2918
      -------------------------------------------------------------
                  HL-Gap            0.0269863 Eh            0.7343 eV
             Fermi-level           -0.3832828 Eh          -10.4297 eV

   #   Z        covCN         q      C6AA      α(0)
   1   7 N      1.776    -0.274    27.922     7.825
   2   6 C      2.823     0.163    24.471     8.106
   3   7 N      2.225     0.208    18.115     6.317
   4   7 N      0.984    -0.117    23.180     6.925
   5   8 O      1.259    -0.274    19.067     5.868
   6   7 N      1.856     0.038    21.245     6.832
   7   6 C      2.852    -0.004    28.125     8.692
   8   1 H      0.860     0.175     1.241     1.745
   9   1 H      0.926     0.085     1.929     2.172

 Mol. C6AA /au·bohr⁶  :       1297.277831
 Mol. C8AA /au·bohr⁸  :      29655.072933
 Mol. α(0) /au        :         54.481151


Wiberg/Mayer (AO) data.
largest (>0.10) Wiberg bond orders for each atom
          total WBO             WBO to atom ...
     1  N   3.106        C    2 1.781    H    8 0.938    N    4 0.110
     2  C   3.950        N    1 1.781    C    7 1.127    N    3 0.920
     3  N   3.771        N    4 2.327    C    2 0.920    O    5 0.346
     4  N   2.853        N    3 2.327    O    5 0.262    N    1 0.110
     5  O   2.269        N    6 1.336    N    3 0.346    N    4 0.262    C    7 0.182
     6  N   3.229        C    7 1.598    O    5 1.336
     7  C   3.965        N    6 1.598    C    2 1.127    H    9 0.958    O    5 0.182
     8  H   0.969        N    1 0.938
     9  H   0.993        C    7 0.958

molecular dipole:
                 x           y           z       tot (Debye)
 q only:       -0.170       0.850       0.009
   full:       -0.345       0.857      -0.110       2.365
molecular quadrupole (traceless):
                xx          xy          yy          xz          yz          zz
 q only:        3.645       1.656      -7.723       1.644       0.293       4.078
  q+dip:        3.852       1.608     -10.107       1.448       0.673       6.255
   full:        3.340       1.369     -11.033       0.250       0.709       7.692


           -------------------------------------------------
          | TOTAL ENERGY              -20.862589853747 Eh   |
          | GRADIENT NORM               0.033624092560 Eh/α |
          | HOMO-LUMO GAP               0.734335942755 eV   |
           -------------------------------------------------

------------------------------------------------------------------------
 * finished run on 2021/06/02 at 10:00:07.136     
------------------------------------------------------------------------
 total:
 * wall-time:     0 d,  0 h,  0 min,  0.016 sec
 *  cpu-time:     0 d,  0 h,  0 min,  0.016 sec
 * ratio c/w:     0.984 speedup
 SCF:
 * wall-time:     0 d,  0 h,  0 min,  0.008 sec
 *  cpu-time:     0 d,  0 h,  0 min,  0.008 sec
 * ratio c/w:     1.000 speedup

