      -----------------------------------------------------------      
     |                   =====================                   |     
     |                           x T B                           |     
     |                   =====================                   |     
     |                         S. Grimme                         |     
     |          Mulliken Center for Theoretical Chemistry        |     
     |                    University of Bonn                     |     
     |                 Version 6.1.4 (SAW190525)                 |     
      -----------------------------------------------------------      

   This program is distributed in the hope that it will be useful,
   but WITHOUT ANY WARRANTY; without even the implied warranty of
   MERCHANTABILITY or FITNESS FOR A PARTICULAR PURPOSE.
   
   FOR NON-COMMERCIAL, ACADEMIA USE ONLY.
   
   Cite this work as:
   S. Grimme, C. Bannwarth, P. Shushkov, J. Comput. Theory Chem., 2017,
   13, 1989-2009. DOI: 10.1021/acs.jctc.7b00118
   C. Bannwarth, S. Ehlert and S. Grimme., J. Comput. Theory Chem., 2019,
   just accepted. DOI: 10.1021/acs.jctc.8b01176
   
   for sTDA-xTB:
   S. Grimme and C. Bannwarth, J. Chem. Phys., 2016, 145, 054103.
   DOI: 10.1063/1.4959605
   
   in the mass-spec context:
   V. Asgeirsson, C. Bauer and S. Grimme, Chem. Sci., 2017, 8, 4879.
   DOI: 10.1039/c7sc00601b
   
   for metadynamics refer to:
   S. Grimme, J. Chem. Theory Comput. Article ASAP, 2019,
   DOI: 10.1021/acs.jctc.9b00143
   
   with help from (in alphabetical order)
   C. Bannwarth, F. Bohle, G. Brandenburg, E. Caldeweyher, M. Checinski,
   S. Dohm, S. Ehlert, S. Ehrlich, F. März, H. Neugebauer, J. Pisarek,
   P. Pracht, P. Shushkov, and S. Spicher.
   
 * started run on 2021/03/14 at 23:57:08.720     

           -------------------------------------------------
          |                Calculation Setup                |
           -------------------------------------------------

          program call               : /opt/xtb/6.1/xtb-190527/bin/xtb 0.8_md.xyz --md --input metadyn.inp --gfn 2
          hostname                   : mnode007
          coordinate file            : 0.8_md.xyz
          omp threads                :                     1
          number of atoms            :                    12
          number of electrons        :                    36
          charge                     :                     0
          spin                       :                   0.0
          first test random number   :      0.08062476797640

spherical wallpotenial with radius    3.6488561 Å

########################################################################
# WARNING! Please study the warnings concerning your input carefully
#  - XTBPATH is not set, using XTBHOME instead
########################################################################

           ------------------------------------------------- 
          |                 G F N 2 - x T B                 |
          | Geometry, Frequencies, Noncovalent interactions |
          |            JCTC 2018 parametrisation            |
           ------------------------------------------------- 
             k(s)              :                1.8500
             k(p)              :                2.2300
             k(d)              :                2.2300
             k(f)              :                2.0000
             kEN (H0ij)        :               -2.0000
             D4 a1             :                0.5200
             D4 a2             :                5.0000
             D4 s6             :                1.0000
             D4 s8             :                2.7000
             D4 s9             :                5.0000
             alphaj            :                2.0000

  Z AO/shell   Hii/eV     exponent
  1     Wed Apr 25 08:07:45 CEST 2018   EN: 2.200 GM2: 0.406  GM3: 0.0800  RAES: 1.40
     1s    -10.707211    1.230000
  6     Wed Apr 25 08:07:45 CEST 2018   EN: 2.550 GM2: 0.538  GM3: 0.1500  RAES: 3.00
     2s    -13.970922    2.096432
     2p    -10.063292    1.800000
  8     Wed Apr 25 08:07:45 CEST 2018   EN: 3.440 GM2: 0.452  GM3:-0.0517  RAES: 1.80
     2s    -20.229985    2.439742
     2p    -15.503117    2.137023


            Z     q(EN)     CN     RAES       Cart. coordinates
     1  C   4.0    0.08    2.99    3.02     1.70115     3.61696     0.19176
     2  O   6.0   -0.34    1.00    1.80     2.76313     4.75510     1.91162
     3  C   4.0   -0.10    3.98    3.58    -0.18770     1.53135     0.59324
     4  H   1.0    0.14    0.99    1.43     1.97669     4.44918    -1.70038
     5  C   4.0   -0.05    3.97    3.58     0.30679    -0.98032    -0.69709
     6  H   1.0    0.11    0.99    1.43    -2.08854     1.91092    -0.12730
     7  H   1.0    0.16    0.99    1.43    -0.44973     0.90749     2.54819
     8  O   6.0   -0.18    1.91    1.82     2.23118    -2.52459     0.39285
     9  H   1.0    0.13    0.99    1.43     1.35130    -0.57309    -2.43866
    10  H   1.0    0.12    0.99    1.43    -1.37234    -2.17656    -0.88601
    11  O   6.0   -0.33    1.92    1.82     1.34757    -3.59150     2.76784
    12  H   1.0    0.26    0.99    1.43     0.03035    -4.78196     2.27725

           ------------------------------------------------- 
          |        Self-Consistent Charge Iterations        |
           ------------------------------------------------- 

          ...................................................
          :                      SETUP                      :
          :.................................................:
          :  # basis functions                  30          :
          :  # atomic orbitals                  30          :
          :  # shells                           18          :
          :  # electrons                        36          :
          :  max. iterations                   250          :
          :  Hamiltonian                  GFN2-xTB          :
          :  restarted?                      false          :
          :  GBSA solvation                  false          :
          :  PC potential                    false          :
          :  electronic temp.         6000.0000000     K    :
          :  accuracy                    1.0000000          :
          :  -> integral cutoff          0.2500000E+02      :
          :  -> integral neglect         0.1000000E-07      :
          :  -> SCF convergence          0.1000000E-05 Eh   :
          :  -> wf. convergence          0.1000000E-03 e    :
          :  Broyden damping             0.4000000          :
          ...................................................

 iter      E             dE          RMSdq      gap      omega  full diag
   1    -21.6702265 -0.216702E+02  0.496E+00    4.29       0.0  T
   2    -21.7023194 -0.320929E-01  0.253E+00    3.37       1.0  T
   3    -21.7027552 -0.435805E-03  0.173E+00    3.94       1.0  T
   4    -21.7113735 -0.861828E-02  0.178E-01    3.58       1.0  T
   5    -21.7115502 -0.176679E-03  0.867E-02    3.62       1.0  T
   6    -21.7115572 -0.707884E-05  0.300E-02    3.62       1.0  T
   7    -21.7115585 -0.122356E-05  0.963E-03    3.62       3.0  T
   8    -21.7115588 -0.327393E-06  0.436E-03    3.62       6.6  T
   9    -21.7115588 -0.383045E-07  0.168E-03    3.62      17.2  T
  10    -21.7115588 -0.146807E-07  0.903E-04    3.62      32.0  T
  11    -21.7115588 -0.512560E-08  0.380E-04    3.62      75.9  T

   *** convergence criteria satisfied after 11 iterations ***

         #    Occupation            Energy/Eh            Energy/eV
      -------------------------------------------------------------
         1        2.0000           -0.7361143             -20.0307
       ...           ...                  ...                  ...
        12        1.9999           -0.5382571             -14.6467
        13        1.9997           -0.5152401             -14.0204
        14        1.9991           -0.4930477             -13.4165
        15        1.9988           -0.4872801             -13.2596
        16        1.9975           -0.4722624             -12.8509
        17        1.9894           -0.4449769             -12.1084
        18        1.9486           -0.4146387             -11.2829 (HOMO)
        19        0.0665           -0.2815404              -7.6611 (LUMO)
        20        0.0004           -0.1850042              -5.0342
        21                         -0.0024067              -0.0655
        22                          0.0375441               1.0216
        23                          0.0666165               1.8127
       ...                                ...                  ...
        30                          0.5137196              13.9790
      -------------------------------------------------------------
                  HL-Gap            0.1330983 Eh            3.6218 eV
             Fermi-level           -0.3455576 Eh           -9.4031 eV

 SCC (total)                   0 d,  0 h,  0 min,  0.897 sec
 SCC setup                      ...        0 min,  0.001 sec (  0.093%)
 Dispersion                     ...        0 min,  0.000 sec (  0.039%)
 integral evaluation            ...        0 min,  0.009 sec (  0.969%)
 zeroth order Hamiltonian       ...        0 min,  0.362 sec ( 40.324%)
 iterations                     ...        0 min,  0.019 sec (  2.068%)
 molecular gradient             ...        0 min,  0.008 sec (  0.917%)
 printout                       ...        0 min,  0.498 sec ( 55.581%)

         :::::::::::::::::::::::::::::::::::::::::::::::::::::
         ::                     SUMMARY                     ::
         :::::::::::::::::::::::::::::::::::::::::::::::::::::
         :: total energy              -21.548143286976 Eh   ::
         :: gradient norm               0.093719956061 Eh/α ::
         :: HOMO-LUMO gap               3.621789070107 eV   ::
         ::.................................................::
         :: SCC energy                -21.711558840014 Eh   ::
         :: -> isotropic ES             0.050736561677 Eh   ::
         :: -> anisotropic ES          -0.002909442484 Eh   ::
         :: -> anisotropic XC          -0.002012016729 Eh   ::
         :: -> dispersion              -0.005692119884 Eh   ::
         :: repulsion energy            0.163409202746 Eh   ::
         :: add. restraining            0.000000418606 Eh   ::
         :::::::::::::::::::::::::::::::::::::::::::::::::::::

           -------------------------------------------------
          |                Property Printout                |
           -------------------------------------------------

    * Orbital Energies and Occupations

         #    Occupation            Energy/Eh            Energy/eV
      -------------------------------------------------------------
         1        2.0000           -0.7361143             -20.0307
       ...           ...                  ...                  ...
         6        2.0000           -0.6193096             -16.8523
         7        2.0000           -0.5976488             -16.2629
         8        2.0000           -0.5938216             -16.1587
         9        2.0000           -0.5836884             -15.8830
        10        2.0000           -0.5578737             -15.1805
        11        2.0000           -0.5498279             -14.9616
        12        1.9999           -0.5382571             -14.6467
        13        1.9997           -0.5152401             -14.0204
        14        1.9991           -0.4930477             -13.4165
        15        1.9988           -0.4872801             -13.2596
        16        1.9975           -0.4722624             -12.8509
        17        1.9894           -0.4449769             -12.1084
        18        1.9486           -0.4146387             -11.2829 (HOMO)
        19        0.0665           -0.2815404              -7.6611 (LUMO)
        20        0.0004           -0.1850042              -5.0342
        21                         -0.0024067              -0.0655
        22                          0.0375441               1.0216
        23                          0.0666165               1.8127
        24                          0.1208142               3.2875
        25                          0.1359414               3.6992
        26                          0.1485448               4.0421
        27                          0.1874005               5.0994
        28                          0.2193265               5.9682
        29                          0.2923158               7.9543
        30                          0.5137196              13.9790
      -------------------------------------------------------------
                  HL-Gap            0.1330983 Eh            3.6218 eV
             Fermi-level           -0.3455576 Eh           -9.4031 eV

   #   Z        covCN         q      C6AA      α(0)
   1   6 C      2.756     0.204    23.659     7.965
   2   8 O      0.856    -0.315    20.059     6.005
   3   6 C      3.801    -0.089    22.206     6.709
   4   1 H      0.923     0.041     2.440     2.443
   5   6 C      3.674     0.076    19.543     6.335
   6   1 H      0.924     0.074     2.046     2.237
   7   1 H      0.924     0.097     1.816     2.108
   8   8 O      1.753    -0.211    17.497     5.648
   9   1 H      0.924     0.081     1.970     2.195
  10   1 H      0.924     0.048     2.340     2.392
  11   8 O      1.709    -0.313    19.227     5.920
  12   1 H      0.804     0.309     0.695     1.309

 Mol. C6AA /au·bohr⁶  :       1227.557494
 Mol. C8AA /au·bohr⁸  :      26109.840012
 Mol. α(0) /au        :         51.266256


Wiberg/Mayer (AO) data.
largest (>0.10) Wiberg bond orders for each atom
          total WBO             WBO to atom ...
     1  C   3.848        O    2 1.877    C    3 1.008    H    4 0.932
     2  O   2.008        C    1 1.877
     3  C   3.971        C    1 1.008    C    5 0.980    H    7 0.959    H    6 0.942
     4  H   0.984        C    1 0.932
     5  C   3.938        O    8 0.987    C    3 0.980    H   10 0.966    H    9 0.948
     6  H   0.990        C    3 0.942
     7  H   0.989        C    3 0.959
     8  O   2.019        C    5 0.987    O   11 0.970
     9  H   0.992        C    5 0.948
    10  H   0.995        C    5 0.966
    11  O   1.921        O    8 0.970    H   12 0.895
    12  H   0.904        O   11 0.895

molecular dipole:
                 x           y           z       tot (Debye)
 q only:       -1.441      -0.533      -0.988
   full:       -1.769      -0.737      -1.261       5.831
molecular quadrupole (traceless):
                xx          xy          yy          xz          yz          zz
 q only:       -1.588      -0.172       0.196      -5.059      -4.035       1.393
  q+dip:       -1.532       1.272       1.003      -6.868      -5.304       0.529
   full:       -1.510       0.272       0.955      -6.901      -5.365       0.555


           -------------------------------------------------
          | TOTAL ENERGY              -21.548143286976 Eh   |
          | GRADIENT NORM               0.093719956061 Eh/α |
          | HOMO-LUMO GAP               3.621789070107 eV   |
           -------------------------------------------------
           ------------------------------------------------- 
          |                  Meta Dynamics                  |
           ------------------------------------------------- 
 trajectories on xtb.trj or xtb.trj.<n>
 
 MD time /ps        :   50.00
 dt /fs             :    0.40
 SCC accuracy       :    2.00
 temperature /K     :  300.00
 max steps          :125000
 block length (av.) :  5000
 dumpstep(trj) /fs  :   10.00    25
 dumpstep(coords)/fs: 1000.00  2500
 H atoms mass (amu) :     2
 # deg. of freedom  :    36
 SHAKE off
 Berendsen THERMOSTAT on
kpush  :    0.050
alpha  :    0.300
update : 100
         time (ps)    <Epot>      Ekin   <T>   T     Etot
      0    0.00      0.00000   0.0428    0.    0.   -21.45539
est. speed in wall clock h for 100 ps :  0.93
    200    0.08    -21.39931   0.0310  560.  543.   -21.46517
    400    0.16    -21.45448   0.0453  653.  794.   -21.47041
    600    0.24    -21.47524   0.0328  697.  575.   -21.47383
    800    0.32    -21.48542   0.0560  699.  983.   -21.47793
   1000    0.40    -21.49340   0.0543  719.  952.   -21.48195
   1200    0.48    -21.49983   0.0458  736.  803.   -21.48852
   1400    0.56    -21.50365   0.0311  726.  546.   -21.48905
   1600    0.64    -21.50633   0.0379  708.  665.   -21.49346
   1800    0.72    -21.50844   0.0197  690.  346.   -21.49524
   2000    0.80    -21.51038   0.0264  676.  463.   -21.49834
   2200    0.88    -21.51225   0.0350  666.  614.   -21.49917
   2400    0.96    -21.51426   0.0408  662.  715.   -21.50275
   2600    1.04    -21.51503   0.0348  656.  610.   -21.46139
   2800    1.12    -21.51353   0.0378  652.  663.   -21.46121
   3000    1.20    -21.51334   0.0515  664.  904.   -21.46668
   3200    1.28    -21.51365   0.0407  677.  714.   -21.47130
   3400    1.36    -21.51359   0.0336  678.  589.   -21.47484
   3600    1.44    -21.51348   0.0241  674.  423.   -21.47653
   3800    1.52    -21.51348   0.0383  671.  672.   -21.48017
   4000    1.60    -21.51359   0.0358  667.  629.   -21.48261
   4200    1.68    -21.51376   0.0439  663.  770.   -21.48555
   4400    1.76    -21.51438   0.0353  664.  619.   -21.48944
   4600    1.84    -21.51486   0.0199  662.  349.   -21.49145
   4800    1.92    -21.51502   0.0287  653.  504.   -21.49359
block <Epot> / <T> :     -21.51971  648.     drift:  0.99D+02   Tbath : 300.
   5000    2.00    -21.51541   0.0292  648.  512.   -21.49553
   5200    2.08    -21.51488   0.0603  650. 1059.   -21.45358
   5400    2.16    -21.51475   0.0434  661.  761.   -21.45971
   5600    2.24    -21.51446   0.0468  665.  821.   -21.46545
   5800    2.32    -21.51428   0.0443  668.  777.   -21.46960
   6000    2.40    -21.51427   0.0415  671.  729.   -21.47225
   6200    2.48    -21.51429   0.0368  672.  645.   -21.47668
   6400    2.56    -21.51434   0.0394  672.  691.   -21.48068
   6600    2.64    -21.51430   0.0370  668.  649.   -21.48174
   6800    2.72    -21.51422   0.0254  663.  446.   -21.48397
   7000    2.80    -21.51415   0.0239  658.  419.   -21.48630
   7200    2.88    -21.51420   0.0220  654.  386.   -21.48772
   7400    2.96    -21.51418   0.0286  648.  502.   -21.48980
   7600    3.04    -21.51385   0.0348  643.  611.   -21.44734
   7800    3.12    -21.51317   0.0610  645. 1071.   -21.44634
   8000    3.20    -21.51308   0.0526  655.  923.   -21.45337
   8200    3.28    -21.51278   0.0470  658.  825.   -21.45796
   8400    3.36    -21.51237   0.0337  657.  591.   -21.46199
   8600    3.44    -21.51190   0.0278  654.  488.   -21.46365
   8800    3.52    -21.51142   0.0273  650.  480.   -21.46341
   9000    3.60    -21.51116   0.0427  648.  749.   -21.46771
   9200    3.68    -21.51115   0.0398  650.  699.   -21.47194
   9400    3.76    -21.51117   0.0324  651.  568.   -21.47453
   9600    3.84    -21.51107   0.0331  648.  581.   -21.47610
   9800    3.92    -21.51110   0.0359  647.  630.   -21.47928
  10000    4.00    -21.51119   0.0377  646.  662.   -21.48143
block <Epot> / <T> :     -21.50697  644.     drift:  0.99D+02   Tbath : 300.
  10200    4.08    -21.51068   0.0332  646.  583.   -21.43960
  10400    4.16    -21.51006   0.0427  646.  749.   -21.44371
  10600    4.24    -21.50975   0.0494  650.  866.   -21.44731
  10800    4.32    -21.50938   0.0207  651.  362.   -21.45175
  11000    4.40    -21.50878   0.0258  647.  452.   -21.45270
  11200    4.48    -21.50860   0.0461  649.  808.   -21.45652
  11400    4.56    -21.50838   0.0293  649.  515.   -21.46020
  11600    4.64    -21.50810   0.0270  647.  474.   -21.46235
  11800    4.72    -21.50782   0.0266  645.  466.   -21.46480
  12000    4.80    -21.50763   0.0307  643.  538.   -21.46642
  12200    4.88    -21.50741   0.0175  640.  308.   -21.46726
  12400    4.96    -21.50715   0.0215  636.  377.   -21.46913
  12600    5.04    -21.50691   0.0341  636.  598.   -21.42938
  12800    5.12    -21.50629   0.0322  637.  565.   -21.42851
  13000    5.20    -21.50578   0.0607  639. 1065.   -21.43256
  13200    5.28    -21.50533   0.0348  640.  611.   -21.43709
  13400    5.36    -21.50493   0.0387  641.  679.   -21.44014
  13600    5.44    -21.50443   0.0308  639.  540.   -21.44263
  13800    5.52    -21.50399   0.0273  637.  479.   -21.44414
  14000    5.60    -21.50361   0.0298  636.  523.   -21.44663
  14200    5.68    -21.50329   0.0296  635.  519.   -21.45022
  14400    5.76    -21.50293   0.0221  633.  387.   -21.45151
  14600    5.84    -21.50260   0.0300  631.  526.   -21.45310
  14800    5.92    -21.50234   0.0300  629.  527.   -21.45458
  15000    6.00    -21.50202   0.0189  626.  332.   -21.45491
block <Epot> / <T> :     -21.48366  587.     drift:  0.99D+02   Tbath : 300.
  15200    6.08    -21.50132   0.0393  625.  689.   -21.41132
  15400    6.16    -21.50077   0.0492  627.  863.   -21.41505
  15600    6.24    -21.50013   0.0455  627.  798.   -21.41837
  15800    6.32    -21.49970   0.0427  629.  748.   -21.42207
  16000    6.40    -21.49925   0.0297  630.  520.   -21.42582
  16200    6.48    -21.49869   0.0227  628.  398.   -21.42770
  16400    6.56    -21.49824   0.0426  627.  747.   -21.43117
  16600    6.64    -21.49793   0.0370  628.  648.   -21.43432
  16800    6.72    -21.49762   0.0315  628.  552.   -21.43660
  17000    6.80    -21.49723   0.0370  627.  649.   -21.43896
  17200    6.88    -21.49696   0.0316  626.  554.   -21.44127
  17400    6.96    -21.49667   0.0368  625.  645.   -21.44218
  17600    7.04    -21.49623   0.0335  623.  587.   -21.40206
  17800    7.12    -21.49548   0.0350  622.  615.   -21.40016
  18000    7.20    -21.49480   0.0361  621.  633.   -21.40290
  18200    7.28    -21.49435   0.0602  624. 1057.   -21.40811
  18400    7.36    -21.49392   0.0447  626.  784.   -21.41229
  18600    7.44    -21.49349   0.0296  626.  519.   -21.41550
  18800    7.52    -21.49301   0.0334  625.  586.   -21.41886
  19000    7.60    -21.49260   0.0267  625.  469.   -21.42129
  19200    7.68    -21.49216   0.0364  624.  639.   -21.42305
  19400    7.76    -21.49179   0.0287  623.  503.   -21.42572
  19600    7.84    -21.49139   0.0314  622.  550.   -21.42727
  19800    7.92    -21.49104   0.0302  620.  530.   -21.42757
  20000    8.00    -21.49068   0.0266  619.  466.   -21.42999
block <Epot> / <T> :     -21.45664  596.     drift:  0.21D-01   Tbath : 300.
  20200    8.08    -21.49014   0.0421  619.  738.   -21.38926
  20400    8.16    -21.48969   0.0452  622.  793.   -21.39381
  20600    8.24    -21.48917   0.0381  623.  669.   -21.39836
  20800    8.32    -21.48868   0.0465  623.  816.   -21.40136
  21000    8.40    -21.48823   0.0347  624.  609.   -21.40512
  21200    8.48    -21.48781   0.0494  624.  866.   -21.40920
  21400    8.56    -21.48745   0.0290  625.  509.   -21.41168
  21600    8.64    -21.48703   0.0419  624.  735.   -21.41335
  21800    8.72    -21.48673   0.0334  624.  585.   -21.41754
  22000    8.80    -21.48637   0.0396  623.  695.   -21.41848
  22200    8.88    -21.48606   0.0279  622.  489.   -21.42118
  22400    8.96    -21.48568   0.0227  620.  399.   -21.42339
  22600    9.04    -21.48522   0.0241  618.  423.   -21.38225
  22800    9.12    -21.48458   0.0306  618.  537.   -21.38074
  23000    9.20    -21.48398   0.0191  618.  335.   -21.38253
  23200    9.28    -21.48341   0.0394  618.  692.   -21.38509
  23400    9.36    -21.48285   0.0301  617.  529.   -21.38712
  23600    9.44    -21.48234   0.0325  617.  570.   -21.39056
  23800    9.52    -21.48183   0.0302  616.  530.   -21.39285
  24000    9.60    -21.48135   0.0379  616.  666.   -21.39502
  24200    9.68    -21.48093   0.0394  616.  692.   -21.39747
  24400    9.76    -21.48054   0.0308  616.  540.   -21.39962
  24600    9.84    -21.48017   0.0329  616.  577.   -21.40245
  24800    9.92    -21.47980   0.0256  615.  450.   -21.40527
  25000   10.00    -21.47944   0.0185  614.  324.   -21.40673
block <Epot> / <T> :     -21.43445  594.     drift:  0.24D-01   Tbath : 300.
  25200   10.08    -21.47882   0.0321  613.  564.   -21.36215
  25400   10.16    -21.47827   0.0484  614.  850.   -21.36633
  25600   10.24    -21.47784   0.0533  617.  936.   -21.37284
  25800   10.32    -21.47738   0.0537  618.  942.   -21.37617
  26000   10.40    -21.47700   0.0427  620.  749.   -21.38166
  26200   10.48    -21.47652   0.0277  619.  486.   -21.38410
  26400   10.56    -21.47604   0.0323  618.  567.   -21.38615
  26600   10.64    -21.47564   0.0369  618.  648.   -21.38901
  26800   10.72    -21.47529   0.0447  619.  784.   -21.39219
  27000   10.80    -21.47500   0.0340  620.  596.   -21.39602
  27200   10.88    -21.47467   0.0400  619.  702.   -21.39861
  27400   10.96    -21.47437   0.0288  619.  506.   -21.40183
  27600   11.04    -21.47401   0.0209  619.  366.   -21.36204
  27800   11.12    -21.47344   0.0323  619.  567.   -21.35978
  28000   11.20    -21.47292   0.0357  619.  627.   -21.36338
  28200   11.28    -21.47240   0.0412  619.  724.   -21.36607
  28400   11.36    -21.47193   0.0350  619.  615.   -21.37047
  28600   11.44    -21.47146   0.0376  619.  659.   -21.37277
  28800   11.52    -21.47103   0.0249  619.  436.   -21.37555
  29000   11.60    -21.47060   0.0329  619.  577.   -21.37741
  29200   11.68    -21.47019   0.0372  618.  652.   -21.37995
  29400   11.76    -21.46977   0.0326  618.  571.   -21.38246
  29600   11.84    -21.46938   0.0280  617.  491.   -21.38249
  29800   11.92    -21.46898   0.0246  616.  431.   -21.38572
  30000   12.00    -21.46861   0.0362  615.  635.   -21.38870
block <Epot> / <T> :     -21.41448  620.     drift:  0.23D-01   Tbath : 300.
  30200   12.08    -21.46806   0.0289  614.  507.   -21.34266
  30400   12.16    -21.46745   0.0280  614.  492.   -21.34434
  30600   12.24    -21.46686   0.0272  613.  478.   -21.34824
  30800   12.32    -21.46630   0.0309  613.  542.   -21.35048
  31000   12.40    -21.46583   0.0353  614.  620.   -21.35324
  31200   12.48    -21.46537   0.0442  614.  775.   -21.35792
  31400   12.56    -21.46494   0.0383  615.  672.   -21.36078
  31600   12.64    -21.46453   0.0292  615.  513.   -21.36357
  31800   12.72    -21.46410   0.0312  615.  547.   -21.36718
  32000   12.80    -21.46370   0.0337  614.  592.   -21.36951
  32200   12.88    -21.46330   0.0167  614.  292.   -21.37138
  32400   12.96    -21.46288   0.0296  613.  519.   -21.37143
  32600   13.04    -21.46247   0.0285  613.  500.   -21.33498
  32800   13.12    -21.46194   0.0396  613.  694.   -21.33574
  33000   13.20    -21.46139   0.0288  613.  506.   -21.33712
  33200   13.28    -21.46087   0.0317  613.  557.   -21.34122
  33400   13.36    -21.46032   0.0408  613.  716.   -21.34226
  33600   13.44    -21.45982   0.0285  612.  501.   -21.34427
  33800   13.52    -21.45932   0.0376  612.  660.   -21.34709
  34000   13.60    -21.45890   0.0404  612.  709.   -21.35004
  34200   13.68    -21.45847   0.0333  612.  585.   -21.35306
  34400   13.76    -21.45805   0.0326  612.  572.   -21.35547
  34600   13.84    -21.45763   0.0322  611.  565.   -21.35769
  34800   13.92    -21.45725   0.0309  611.  542.   -21.36030
  35000   14.00    -21.45686   0.0281  610.  494.   -21.36242
block <Epot> / <T> :     -21.38630  584.     drift:  0.23D-01   Tbath : 300.
  35200   14.08    -21.45629   0.0229  610.  403.   -21.31644
  35400   14.16    -21.45570   0.0372  610.  653.   -21.32028
  35600   14.24    -21.45515   0.0262  610.  460.   -21.32255
  35800   14.32    -21.45462   0.0529  610.  927.   -21.32586
  36000   14.40    -21.45422   0.0437  612.  766.   -21.33187
  36200   14.48    -21.45374   0.0266  612.  467.   -21.33452
  36400   14.56    -21.45327   0.0267  611.  468.   -21.33708
  36600   14.64    -21.45278   0.0356  611.  625.   -21.33808
  36800   14.72    -21.45235   0.0384  611.  674.   -21.34103
  37000   14.80    -21.45195   0.0335  611.  587.   -21.34425
  37200   14.88    -21.45158   0.0348  611.  611.   -21.34734
  37400   14.96    -21.45118   0.0274  610.  481.   -21.35027
  37600   15.04    -21.45076   0.0228  610.  400.   -21.31272
  37800   15.12    -21.45020   0.0351  610.  615.   -21.30987
  38000   15.20    -21.44970   0.0503  611.  883.   -21.31382
  38200   15.28    -21.44918   0.0321  611.  564.   -21.31677
  38400   15.36    -21.44869   0.0417  611.  731.   -21.32000
  38600   15.44    -21.44821   0.0333  611.  583.   -21.32351
  38800   15.52    -21.44776   0.0361  611.  633.   -21.32574
  39000   15.60    -21.44729   0.0355  611.  623.   -21.32819
  39200   15.68    -21.44685   0.0306  610.  536.   -21.33100
  39400   15.76    -21.44642   0.0221  610.  388.   -21.33301
  39600   15.84    -21.44598   0.0325  609.  570.   -21.33405
  39800   15.92    -21.44557   0.0298  609.  522.   -21.33681
  40000   16.00    -21.44517   0.0323  608.  566.   -21.33735
block <Epot> / <T> :     -21.36333  592.     drift:  0.24D-01   Tbath : 300.
  40200   16.08    -21.44464   0.0379  608.  665.   -21.29544
  40400   16.16    -21.44410   0.0462  608.  810.   -21.29712
  40600   16.24    -21.44357   0.0559  609.  981.   -21.30100
  40800   16.32    -21.44313   0.0401  610.  704.   -21.30583
  41000   16.40    -21.44266   0.0305  610.  535.   -21.30900
  41200   16.48    -21.44220   0.0407  610.  714.   -21.31263
  41400   16.56    -21.44175   0.0413  610.  724.   -21.31560
  41600   16.64    -21.44132   0.0349  610.  612.   -21.31779
  41800   16.72    -21.44089   0.0369  610.  647.   -21.32062
  42000   16.80    -21.44047   0.0371  610.  650.   -21.32323
  42200   16.88    -21.44006   0.0215  609.  378.   -21.32565
  42400   16.96    -21.43964   0.0370  609.  650.   -21.32763
  42600   17.04    -21.43921   0.0315  608.  553.   -21.28882
  42800   17.12    -21.43864   0.0380  608.  666.   -21.28611
  43000   17.20    -21.43817   0.0457  609.  802.   -21.29265
  43200   17.28    -21.43774   0.0573  611. 1005.   -21.29748
  43400   17.36    -21.43731   0.0290  611.  509.   -21.30284
  43600   17.44    -21.43687   0.0471  612.  826.   -21.30510
  43800   17.52    -21.43650   0.0468  613.  821.   -21.31044
  44000   17.60    -21.43614   0.0407  614.  714.   -21.31514
  44200   17.68    -21.43576   0.0272  613.  477.   -21.31701
  44400   17.76    -21.43538   0.0271  613.  475.   -21.32034
  44600   17.84    -21.43500   0.0221  613.  388.   -21.32371
  44800   17.92    -21.43462   0.0161  612.  282.   -21.32510
  45000   18.00    -21.43427   0.0354  612.  621.   -21.32649
block <Epot> / <T> :     -21.34705  641.     drift:  0.23D-01   Tbath : 300.
  45200   18.08    -21.43384   0.0552  612.  968.   -21.28322
  45400   18.16    -21.43338   0.0331  613.  581.   -21.28718
  45600   18.24    -21.43290   0.0305  613.  534.   -21.28977
  45800   18.32    -21.43241   0.0263  612.  462.   -21.29131
  46000   18.40    -21.43195   0.0370  612.  649.   -21.29459
  46200   18.48    -21.43155   0.0285  613.  501.   -21.29866
  46400   18.56    -21.43113   0.0291  613.  511.   -21.30115
  46600   18.64    -21.43075   0.0292  613.  512.   -21.30544
  46800   18.72    -21.43035   0.0264  613.  463.   -21.30765
  47000   18.80    -21.42996   0.0320  612.  561.   -21.30932
  47200   18.88    -21.42960   0.0351  612.  616.   -21.31181
  47400   18.96    -21.42923   0.0303  612.  532.   -21.31497
  47600   19.04    -21.42882   0.0262  611.  459.   -21.27557
  47800   19.12    -21.42833   0.0450  612.  789.   -21.27320
  48000   19.20    -21.42789   0.0601  613. 1055.   -21.27874
  48200   19.28    -21.42747   0.0403  613.  707.   -21.28374
  48400   19.36    -21.42708   0.0423  614.  742.   -21.28758
  48600   19.44    -21.42664   0.0308  614.  540.   -21.29156
  48800   19.52    -21.42627   0.0551  614.  967.   -21.29477
  49000   19.60    -21.42591   0.0377  615.  661.   -21.29854
  49200   19.68    -21.42556   0.0460  615.  807.   -21.30210
  49400   19.76    -21.42521   0.0431  615.  755.   -21.30678
  49600   19.84    -21.42487   0.0255  615.  448.   -21.30775
  49800   19.92    -21.42453   0.0294  615.  516.   -21.30959
  50000   20.00    -21.42421   0.0356  615.  624.   -21.31262
block <Epot> / <T> :     -21.33364  641.     drift:  0.17D-01   Tbath : 300.
  50200   20.08    -21.42377   0.0350  614.  615.   -21.27011
  50400   20.16    -21.42331   0.0438  614.  768.   -21.27255
  50600   20.24    -21.42289   0.0305  615.  535.   -21.27776
  50800   20.32    -21.42246   0.0244  615.  428.   -21.28039
  51000   20.40    -21.42200   0.0244  614.  428.   -21.28173
  51200   20.48    -21.42157   0.0343  614.  602.   -21.28372
  51400   20.56    -21.42118   0.0439  614.  770.   -21.28633
  51600   20.64    -21.42079   0.0262  614.  460.   -21.28953
  51800   20.72    -21.42038   0.0331  613.  581.   -21.29003
  52000   20.80    -21.41999   0.0276  613.  485.   -21.29297
  52200   20.88    -21.41962   0.0312  612.  547.   -21.29323
  52400   20.96    -21.41923   0.0188  611.  329.   -21.29625
  52600   21.04    -21.41882   0.0347  611.  609.   -21.25868
  52800   21.12    -21.41834   0.0343  611.  602.   -21.25466
  53000   21.20    -21.41789   0.0575  611. 1008.   -21.25792
  53200   21.28    -21.41746   0.0447  612.  785.   -21.26270
  53400   21.36    -21.41699   0.0296  612.  519.   -21.26609
  53600   21.44    -21.41658   0.0355  612.  623.   -21.26764
  53800   21.52    -21.41615   0.0296  612.  520.   -21.27047
  54000   21.60    -21.41574   0.0374  612.  656.   -21.27382
  54200   21.68    -21.41534   0.0329  611.  577.   -21.27587
  54400   21.76    -21.41495   0.0337  611.  592.   -21.27908
  54600   21.84    -21.41457   0.0357  611.  627.   -21.28043
  54800   21.92    -21.41418   0.0166  610.  291.   -21.28266
  55000   22.00    -21.41378   0.0229  609.  401.   -21.28348
block <Epot> / <T> :     -21.30935  556.     drift:  0.18D-01   Tbath : 300.
  55200   22.08    -21.41332   0.0394  609.  692.   -21.24293
  55400   22.16    -21.41284   0.0332  609.  583.   -21.24559
  55600   22.24    -21.41238   0.0431  610.  757.   -21.24874
  55800   22.32    -21.41193   0.0252  610.  443.   -21.25229
  56000   22.40    -21.41149   0.0414  610.  726.   -21.25478
  56200   22.48    -21.41105   0.0319  610.  560.   -21.25835
  56400   22.56    -21.41061   0.0214  609.  376.   -21.25924
  56600   22.64    -21.41019   0.0376  609.  660.   -21.26143
  56800   22.72    -21.40977   0.0228  609.  401.   -21.26371
  57000   22.80    -21.40936   0.0352  608.  618.   -21.26560
  57200   22.88    -21.40898   0.0407  608.  715.   -21.26788
  57400   22.96    -21.40862   0.0348  608.  611.   -21.27108
  57600   23.04    -21.40823   0.0305  608.  536.   -21.23472
  57800   23.12    -21.40775   0.0469  608.  823.   -21.23214
  58000   23.20    -21.40728   0.0376  609.  660.   -21.23567
  58200   23.28    -21.40684   0.0382  609.  670.   -21.24027
  58400   23.36    -21.40639   0.0353  609.  620.   -21.24337
  58600   23.44    -21.40596   0.0271  609.  476.   -21.24548
  58800   23.52    -21.40552   0.0328  609.  576.   -21.24749
  59000   23.60    -21.40512   0.0383  609.  672.   -21.24976
  59200   23.68    -21.40471   0.0322  609.  565.   -21.25423
  59400   23.76    -21.40431   0.0209  609.  367.   -21.25486
  59600   23.84    -21.40392   0.0254  608.  445.   -21.25704
  59800   23.92    -21.40352   0.0266  608.  466.   -21.25811
  60000   24.00    -21.40313   0.0232  608.  406.   -21.26171
block <Epot> / <T> :     -21.28599  586.     drift:  0.21D-01   Tbath : 300.
  60200   24.08    -21.40266   0.0291  607.  510.   -21.21664
  60400   24.16    -21.40214   0.0284  607.  498.   -21.21942
  60600   24.24    -21.40167   0.0381  607.  668.   -21.22183
  60800   24.32    -21.40120   0.0361  607.  634.   -21.22379
  61000   24.40    -21.40076   0.0383  608.  672.   -21.22835
  61200   24.48    -21.40032   0.0350  608.  613.   -21.23140
  61400   24.56    -21.39989   0.0383  608.  672.   -21.23533
  61600   24.64    -21.39948   0.0447  608.  784.   -21.23790
  61800   24.72    -21.39907   0.0385  608.  676.   -21.24058
  62000   24.80    -21.39866   0.0276  607.  483.   -21.24243
  62200   24.88    -21.39825   0.0344  607.  604.   -21.24513
  62400   24.96    -21.39802   0.2120  610. 3719.   -21.25835
  62600   25.04    -21.39833   0.2303  620. 4040.   -21.26788
  62800   25.12    -21.39856   0.2042  630. 3582.   -21.28606
  63000   25.20    -21.39885   0.2160  638. 3789.   -21.31837
  63200   25.28    -21.39921   0.1945  646. 3413.   -21.33856
  63400   25.36    -21.39962   0.1686  654. 2958.   -21.36827
  63600   25.44    -21.40006   0.1449  661. 2542.   -21.38377
  63800   25.52    -21.40048   0.1371  666. 2404.   -21.41474
  64000   25.60    -21.40093   0.0841  671. 1475.   -21.43080
  64200   25.68    -21.40140   0.1344  675. 2358.   -21.44335
  64400   25.76    -21.40186   0.1114  678. 1954.   -21.46151
  64600   25.84    -21.40236   0.1050  682. 1842.   -21.47156
  64800   25.92    -21.40284   0.0690  684. 1210.   -21.48194
  65000   26.00    -21.40332   0.0677  686. 1187.   -21.49001
block <Epot> / <T> :     -21.40628 1627.     drift: -0.19D-01   Tbath : 300.
  65200   26.08    -21.40376   0.0832  688. 1459.   -21.45431
  65400   26.16    -21.40423   0.0900  691. 1579.   -21.46896
  65600   26.24    -21.40470   0.0671  694. 1178.   -21.48040
  65800   26.32    -21.40515   0.0413  695.  725.   -21.48815
  66000   26.40    -21.40564   0.0724  697. 1270.   -21.49401
  66200   26.48    -21.40614   0.0819  699. 1437.   -21.50591
  66400   26.56    -21.40664   0.0447  700.  784.   -21.51195
  66600   26.64    -21.40713   0.0722  701. 1267.   -21.51887
  66800   26.72    -21.40766   0.0491  702.  861.   -21.52783
  67000   26.80    -21.40820   0.0569  703.  998.   -21.53457
  67200   26.88    -21.40872   0.0521  703.  915.   -21.53572
  67400   26.96    -21.40927   0.0676  704. 1186.   -21.54349
  67600   27.04    -21.40980   0.0286  704.  501.   -21.51241
  67800   27.12    -21.41023   0.0598  705. 1049.   -21.50777
  68000   27.20    -21.41074   0.0781  706. 1370.   -21.51579
  68200   27.28    -21.41128   0.0569  708.  999.   -21.52394
  68400   27.36    -21.41176   0.0488  708.  856.   -21.53154
  68600   27.44    -21.41225   0.0579  709. 1016.   -21.53389
  68800   27.52    -21.41279   0.0631  710. 1107.   -21.54197
  69000   27.60    -21.41332   0.0378  710.  663.   -21.54857
  69200   27.68    -21.41381   0.0310  710.  544.   -21.55012
  69400   27.76    -21.41432   0.0384  710.  673.   -21.55532
  69600   27.84    -21.41485   0.0418  710.  733.   -21.55965
  69800   27.92    -21.41539   0.0363  710.  637.   -21.56186
  70000   28.00    -21.41589   0.0345  709.  605.   -21.56508
block <Epot> / <T> :     -21.57940 1016.     drift: -0.93D-01   Tbath : 300.
  70200   28.08    -21.41635   0.0492  709.  863.   -21.52341
  70400   28.16    -21.41682   0.0503  710.  883.   -21.52712
  70600   28.24    -21.41726   0.0329  710.  577.   -21.53193
  70800   28.32    -21.41770   0.0434  710.  761.   -21.53644
  71000   28.40    -21.41814   0.0375  710.  657.   -21.53885
  71200   28.48    -21.41861   0.0410  710.  719.   -21.54222
  71400   28.56    -21.41907   0.0234  710.  411.   -21.54755
  71600   28.64    -21.41951   0.0393  710.  689.   -21.54980
  71800   28.72    -21.41998   0.0288  709.  505.   -21.55105
  72000   28.80    -21.42042   0.0349  709.  613.   -21.55307
  72200   28.88    -21.42087   0.0333  708.  585.   -21.55530
  72400   28.96    -21.42132   0.0315  708.  553.   -21.55639
  72600   29.04    -21.42174   0.0239  707.  420.   -21.51949
  72800   29.12    -21.42209   0.0393  706.  690.   -21.51392
  73000   29.20    -21.42249   0.0516  707.  906.   -21.51860
  73200   29.28    -21.42288   0.0450  707.  790.   -21.52477
  73400   29.36    -21.42327   0.0463  707.  812.   -21.52705
  73600   29.44    -21.42367   0.0265  707.  465.   -21.53095
  73800   29.52    -21.42403   0.0289  707.  507.   -21.53324
  74000   29.60    -21.42442   0.0249  706.  437.   -21.53520
  74200   29.68    -21.42480   0.0218  706.  383.   -21.53780
  74400   29.76    -21.42519   0.0368  705.  645.   -21.53920
  74600   29.84    -21.42559   0.0270  705.  474.   -21.54246
  74800   29.92    -21.42597   0.0294  704.  516.   -21.54306
  75000   30.00    -21.42635   0.0264  704.  463.   -21.54531
block <Epot> / <T> :     -21.57270  620.     drift: -0.10D+00   Tbath : 300.
  75200   30.08    -21.42665   0.0257  703.  450.   -21.49911
  75400   30.16    -21.42695   0.0587  703. 1030.   -21.50180
  75600   30.24    -21.42728   0.0379  703.  664.   -21.50634
  75800   30.32    -21.42758   0.0542  703.  951.   -21.50905
  76000   30.40    -21.42792   0.0363  703.  637.   -21.51353
  76200   30.48    -21.42824   0.0437  703.  767.   -21.51791
  76400   30.56    -21.42858   0.0310  703.  544.   -21.52017
  76600   30.64    -21.42887   0.0160  702.  280.   -21.51985
  76800   30.72    -21.42916   0.0231  701.  405.   -21.52121
  77000   30.80    -21.42949   0.0398  700.  699.   -21.52322
  77200   30.88    -21.42983   0.0320  700.  561.   -21.52593
  77400   30.96    -21.43017   0.0400  700.  701.   -21.52949
  77600   31.04    -21.43048   0.0216  699.  380.   -21.49420
  77800   31.12    -21.43073   0.0478  699.  838.   -21.48717
  78000   31.20    -21.43099   0.0388  700.  681.   -21.49215
  78200   31.28    -21.43128   0.0606  700. 1063.   -21.49567
  78400   31.36    -21.43155   0.0258  700.  453.   -21.49960
  78600   31.44    -21.43181   0.0267  700.  468.   -21.50247
  78800   31.52    -21.43205   0.0317  699.  556.   -21.50402
  79000   31.60    -21.43236   0.0460  699.  808.   -21.50821
  79200   31.68    -21.43263   0.0233  699.  409.   -21.51082
  79400   31.76    -21.43292   0.0284  699.  498.   -21.51372
  79600   31.84    -21.43320   0.0306  698.  536.   -21.51533
  79800   31.92    -21.43349   0.0368  698.  645.   -21.51830
  80000   32.00    -21.43378   0.0248  697.  435.   -21.52034
block <Epot> / <T> :     -21.54518  605.     drift: -0.41D-01   Tbath : 300.
  80200   32.08    -21.43401   0.0399  697.  699.   -21.47738
  80400   32.16    -21.43420   0.0242  697.  424.   -21.47911
  80600   32.24    -21.43440   0.0385  697.  675.   -21.48266
  80800   32.32    -21.43462   0.0378  696.  662.   -21.48490
  81000   32.40    -21.43484   0.0480  696.  842.   -21.48886
  81200   32.48    -21.43509   0.0336  696.  590.   -21.49263
  81400   32.56    -21.43530   0.0217  696.  380.   -21.49572
  81600   32.64    -21.43553   0.0357  696.  626.   -21.49826
  81800   32.72    -21.43575   0.0308  695.  541.   -21.49866
  82000   32.80    -21.43599   0.0355  695.  622.   -21.50079
  82200   32.88    -21.43623   0.0304  695.  533.   -21.50440
  82400   32.96    -21.43646   0.0218  694.  382.   -21.50571
  82600   33.04    -21.43666   0.0307  693.  539.   -21.46981
  82800   33.12    -21.43684   0.0489  693.  857.   -21.46410
  83000   33.20    -21.43702   0.0433  694.  760.   -21.46933
  83200   33.28    -21.43720   0.0275  694.  482.   -21.47292
  83400   33.36    -21.43734   0.0311  693.  546.   -21.47446
  83600   33.44    -21.43750   0.0270  693.  474.   -21.47629
  83800   33.52    -21.43765   0.0220  692.  385.   -21.47713
  84000   33.60    -21.43781   0.0267  691.  468.   -21.47872
  84200   33.68    -21.43796   0.0288  691.  505.   -21.47972
  84400   33.76    -21.43815   0.0387  691.  679.   -21.48308
  84600   33.84    -21.43834   0.0192  690.  336.   -21.48565
  84800   33.92    -21.43850   0.0121  690.  213.   -21.48594
  85000   34.00    -21.43868   0.0282  689.  495.   -21.48747
block <Epot> / <T> :     -21.51685  558.     drift:  0.22D-01   Tbath : 300.
  85200   34.08    -21.43881   0.0470  689.  824.   -21.44458
  85400   34.16    -21.43894   0.0415  689.  728.   -21.44852
  85600   34.24    -21.43905   0.0285  689.  500.   -21.45175
  85800   34.32    -21.43915   0.0313  689.  550.   -21.45379
  86000   34.40    -21.43926   0.0362  689.  635.   -21.45528
  86200   34.48    -21.43939   0.0483  688.  847.   -21.45962
  86400   34.56    -21.43954   0.0356  688.  624.   -21.46346
  86600   34.64    -21.43968   0.0262  688.  460.   -21.46611
  86800   34.72    -21.43981   0.0307  688.  538.   -21.46918
  87000   34.80    -21.43995   0.0292  688.  512.   -21.47122
  87200   34.88    -21.44008   0.0281  687.  492.   -21.47268
  87400   34.96    -21.44023   0.0316  687.  555.   -21.47472
  87600   35.04    -21.44037   0.0372  686.  653.   -21.44195
  87800   35.12    -21.44044   0.0456  686.  800.   -21.43456
  88000   35.20    -21.44052   0.0363  686.  636.   -21.43830
  88200   35.28    -21.44063   0.0651  687. 1143.   -21.44343
  88400   35.36    -21.44074   0.0227  687.  398.   -21.44887
  88600   35.44    -21.44085   0.0416  687.  730.   -21.45083
  88800   35.52    -21.44097   0.0446  687.  782.   -21.45471
  89000   35.60    -21.44108   0.0359  687.  631.   -21.45683
  89200   35.68    -21.44119   0.0255  687.  447.   -21.45999
  89400   35.76    -21.44131   0.0263  686.  462.   -21.46174
  89600   35.84    -21.44143   0.0317  686.  556.   -21.46487
  89800   35.92    -21.44155   0.0266  686.  468.   -21.46631
  90000   36.00    -21.44167   0.0310  685.  544.   -21.46812
block <Epot> / <T> :     -21.49258  622.     drift:  0.27D-01   Tbath : 300.
  90200   36.08    -21.44175   0.0451  685.  792.   -21.42778
  90400   36.16    -21.44183   0.0435  685.  763.   -21.43293
  90600   36.24    -21.44189   0.0293  685.  514.   -21.43520
  90800   36.32    -21.44196   0.0255  685.  447.   -21.43906
  91000   36.40    -21.44202   0.0337  685.  591.   -21.44047
  91200   36.48    -21.44212   0.0377  685.  661.   -21.44453
  91400   36.56    -21.44221   0.0299  685.  524.   -21.44803
  91600   36.64    -21.44230   0.0308  685.  541.   -21.45051
  91800   36.72    -21.44237   0.0243  684.  426.   -21.45189
  92000   36.80    -21.44246   0.0239  684.  419.   -21.45470
  92200   36.88    -21.44254   0.0273  684.  479.   -21.45575
  92400   36.96    -21.44263   0.0257  683.  450.   -21.45646
  92600   37.04    -21.44270   0.0360  683.  632.   -21.42393
  92800   37.12    -21.44275   0.0711  683. 1248.   -21.41821
  93000   37.20    -21.44282   0.0363  683.  636.   -21.42395
  93200   37.28    -21.44284   0.0270  683.  474.   -21.42624
  93400   37.36    -21.44288   0.0426  683.  748.   -21.42840
  93600   37.44    -21.44293   0.0283  683.  496.   -21.43217
  93800   37.52    -21.44297   0.0274  682.  480.   -21.43285
  94000   37.60    -21.44301   0.0376  682.  660.   -21.43521
  94200   37.68    -21.44306   0.0268  682.  471.   -21.43737
  94400   37.76    -21.44313   0.0493  681.  865.   -21.44015
  94600   37.84    -21.44320   0.0243  681.  426.   -21.44248
  94800   37.92    -21.44326   0.0189  681.  332.   -21.44457
  95000   38.00    -21.44332   0.0280  680.  491.   -21.44642
block <Epot> / <T> :     -21.47279  590.     drift:  0.24D-01   Tbath : 300.
  95200   38.08    -21.44332   0.0220  680.  386.   -21.40036
  95400   38.16    -21.44328   0.0270  679.  473.   -21.40154
  95600   38.24    -21.44329   0.0444  680.  779.   -21.40673
  95800   38.32    -21.44331   0.0419  680.  735.   -21.41022
  96000   38.40    -21.44332   0.0284  680.  499.   -21.41400
  96200   38.48    -21.44333   0.0328  680.  576.   -21.41677
  96400   38.56    -21.44335   0.0254  679.  445.   -21.41859
  96600   38.64    -21.44338   0.0477  679.  837.   -21.42155
  96800   38.72    -21.44342   0.0360  679.  631.   -21.42496
  97000   38.80    -21.44343   0.0280  679.  491.   -21.42638
  97200   38.88    -21.44346   0.0281  678.  493.   -21.42921
  97400   38.96    -21.44351   0.0373  678.  655.   -21.43184
  97600   39.04    -21.44355   0.0271  678.  476.   -21.39978
  97800   39.12    -21.44350   0.0252  678.  442.   -21.39060
  98000   39.20    -21.44347   0.0510  678.  894.   -21.39310
  98200   39.28    -21.44346   0.0380  678.  667.   -21.39890
  98400   39.36    -21.44346   0.0362  678.  635.   -21.40112
  98600   39.44    -21.44347   0.0319  678.  560.   -21.40663
  98800   39.52    -21.44347   0.0306  678.  537.   -21.40864
  99000   39.60    -21.44346   0.0359  678.  630.   -21.41029
  99200   39.68    -21.44348   0.0434  678.  761.   -21.41459
  99400   39.76    -21.44348   0.0335  678.  588.   -21.41717
  99600   39.84    -21.44350   0.0250  677.  438.   -21.41941
  99800   39.92    -21.44352   0.0300  677.  526.   -21.42182
 100000   40.00    -21.44354   0.0379  677.  665.   -21.42541
block <Epot> / <T> :     -21.44779  613.     drift:  0.23D-01   Tbath : 300.
 100200   40.08    -21.44352   0.0418  677.  734.   -21.38067
 100400   40.16    -21.44347   0.0338  677.  593.   -21.38295
 100600   40.24    -21.44343   0.0436  677.  766.   -21.38577
 100800   40.32    -21.44339   0.0292  677.  512.   -21.38995
 101000   40.40    -21.44336   0.0457  677.  801.   -21.39313
 101200   40.48    -21.44336   0.0387  677.  679.   -21.39795
 101400   40.56    -21.44334   0.0498  677.  874.   -21.40058
 101600   40.64    -21.44334   0.0367  677.  645.   -21.40457
 101800   40.72    -21.44333   0.0288  677.  506.   -21.40609
 102000   40.80    -21.44332   0.0318  676.  558.   -21.40910
 102200   40.88    -21.44331   0.0288  676.  506.   -21.41123
 102400   40.96    -21.44332   0.0288  676.  505.   -21.41262
 102600   41.04    -21.44331   0.0376  676.  659.   -21.38081
 102800   41.12    -21.44326   0.0449  676.  787.   -21.37246
 103000   41.20    -21.44322   0.0483  676.  847.   -21.37774
 103200   41.28    -21.44319   0.0504  676.  884.   -21.38291
 103400   41.36    -21.44315   0.0300  676.  526.   -21.38668
 103600   41.44    -21.44313   0.0406  677.  711.   -21.39211
 103800   41.52    -21.44310   0.0267  676.  469.   -21.39383
 104000   41.60    -21.44309   0.0427  677.  749.   -21.39908
 104200   41.68    -21.44307   0.0277  676.  486.   -21.40096
 104400   41.76    -21.44304   0.0305  676.  535.   -21.40176
 104600   41.84    -21.44302   0.0251  676.  440.   -21.40380
 104800   41.92    -21.44302   0.0349  676.  612.   -21.40666
 105000   42.00    -21.44301   0.0297  675.  521.   -21.40889
block <Epot> / <T> :     -21.43233  643.     drift:  0.21D-01   Tbath : 300.
 105200   42.08    -21.44295   0.0326  675.  573.   -21.36465
 105400   42.16    -21.44289   0.0421  675.  739.   -21.36772
 105600   42.24    -21.44283   0.0315  675.  552.   -21.37173
 105800   42.32    -21.44275   0.0153  675.  268.   -21.37466
 106000   42.40    -21.44267   0.0197  675.  346.   -21.37437
 106200   42.48    -21.44260   0.0275  674.  483.   -21.37712
 106400   42.56    -21.44255   0.0316  674.  554.   -21.38018
 106600   42.64    -21.44249   0.0300  674.  526.   -21.38264
 106800   42.72    -21.44243   0.0300  674.  526.   -21.38344
 107000   42.80    -21.44238   0.0283  673.  496.   -21.38590
 107200   42.88    -21.44232   0.0197  673.  346.   -21.38858
 107400   42.96    -21.44227   0.0257  672.  450.   -21.38783
 107600   43.04    -21.44220   0.0239  672.  420.   -21.35636
 107800   43.12    -21.44207   0.0480  672.  841.   -21.34425
 108000   43.20    -21.44199   0.0571  672. 1002.   -21.35073
 108200   43.28    -21.44194   0.0408  673.  716.   -21.35597
 108400   43.36    -21.44184   0.0258  673.  452.   -21.35833
 108600   43.44    -21.44175   0.0298  672.  523.   -21.36131
 108800   43.52    -21.44165   0.0247  672.  434.   -21.36209
 109000   43.60    -21.44155   0.0268  672.  470.   -21.36407
 109200   43.68    -21.44148   0.0342  672.  601.   -21.36738
 109400   43.76    -21.44142   0.0381  671.  668.   -21.37093
 109600   43.84    -21.44135   0.0269  671.  472.   -21.37334
 109800   43.92    -21.44129   0.0294  671.  515.   -21.37615
 110000   44.00    -21.44124   0.0431  671.  756.   -21.37907
block <Epot> / <T> :     -21.40394  581.     drift:  0.22D-01   Tbath : 300.
 110200   44.08    -21.44114   0.0259  671.  454.   -21.33593
 110400   44.16    -21.44101   0.0269  671.  472.   -21.33759
 110600   44.24    -21.44089   0.0381  671.  668.   -21.34071
 110800   44.32    -21.44079   0.0511  671.  896.   -21.34601
 111000   44.40    -21.44068   0.0163  671.  287.   -21.34741
 111200   44.48    -21.44055   0.0141  670.  247.   -21.34940
 111400   44.56    -21.44043   0.0354  670.  621.   -21.34971
 111600   44.64    -21.44034   0.0225  670.  395.   -21.35357
 111800   44.72    -21.44025   0.0259  669.  454.   -21.35633
 112000   44.80    -21.44015   0.0329  669.  577.   -21.35786
 112200   44.88    -21.44006   0.0320  669.  561.   -21.35953
 112400   44.96    -21.43997   0.0233  669.  409.   -21.36078
 112600   45.04    -21.43988   0.0369  668.  647.   -21.33033
 112800   45.12    -21.43975   0.0656  669. 1151.   -21.32315
 113000   45.20    -21.43963   0.0266  669.  467.   -21.32772
 113200   45.28    -21.43949   0.0301  669.  529.   -21.33104
 113400   45.36    -21.43936   0.0463  668.  812.   -21.33243
 113600   45.44    -21.43926   0.0408  669.  715.   -21.33816
 113800   45.52    -21.43914   0.0395  669.  694.   -21.34022
 114000   45.60    -21.43903   0.0287  669.  503.   -21.34379
 114200   45.68    -21.43892   0.0516  668.  905.   -21.34533
 114400   45.76    -21.43884   0.0397  668.  696.   -21.35020
 114600   45.84    -21.43873   0.0265  668.  465.   -21.35158
 114800   45.92    -21.43864   0.0429  668.  753.   -21.35381
 115000   46.00    -21.43855   0.0311  668.  545.   -21.35740
block <Epot> / <T> :     -21.37927  594.     drift:  0.23D-01   Tbath : 300.
 115200   46.08    -21.43841   0.0305  667.  535.   -21.31282
 115400   46.16    -21.43823   0.0249  667.  437.   -21.31184
 115600   46.24    -21.43806   0.0239  667.  419.   -21.31437
 115800   46.32    -21.43791   0.0429  667.  753.   -21.31730
 116000   46.40    -21.43777   0.0348  666.  610.   -21.32004
 116200   46.48    -21.43763   0.0315  666.  553.   -21.32310
 116400   46.56    -21.43749   0.0294  666.  516.   -21.32549
 116600   46.64    -21.43735   0.0293  666.  514.   -21.32824
 116800   46.72    -21.43722   0.0216  666.  378.   -21.32883
 117000   46.80    -21.43708   0.0300  665.  527.   -21.33059
 117200   46.88    -21.43695   0.0273  665.  479.   -21.33292
 117400   46.96    -21.43682   0.0242  665.  425.   -21.33446
 117600   47.04    -21.43668   0.0213  664.  374.   -21.30423
 117800   47.12    -21.43648   0.0409  664.  717.   -21.29011
 118000   47.20    -21.43629   0.0323  664.  566.   -21.29210
 118200   47.28    -21.43612   0.0506  664.  888.   -21.29613
 118400   47.36    -21.43596   0.0342  664.  600.   -21.30004
 118600   47.44    -21.43580   0.0314  664.  551.   -21.30351
 118800   47.52    -21.43564   0.0386  664.  678.   -21.30630
 119000   47.60    -21.43549   0.0357  664.  626.   -21.31061
 119200   47.68    -21.43534   0.0383  664.  673.   -21.31375
 119400   47.76    -21.43521   0.0388  664.  680.   -21.31708
 119600   47.84    -21.43508   0.0337  664.  592.   -21.32106
 119800   47.92    -21.43495   0.0221  664.  387.   -21.32395
 120000   48.00    -21.43482   0.0330  664.  579.   -21.32600
block <Epot> / <T> :     -21.34870  574.     drift:  0.28D-01   Tbath : 300.
 120200   48.08    -21.43464   0.0252  664.  442.   -21.28157
 120400   48.16    -21.43445   0.0551  664.  967.   -21.28459
 120600   48.24    -21.43428   0.0577  664. 1012.   -21.28801
 120800   48.32    -21.43413   0.0456  664.  800.   -21.29490
 121000   48.40    -21.43397   0.0403  664.  707.   -21.29656
 121200   48.48    -21.43380   0.0194  664.  341.   -21.30141
 121400   48.56    -21.43364   0.0372  664.  652.   -21.30242
 121600   48.64    -21.43349   0.0375  664.  658.   -21.30666
 121800   48.72    -21.43334   0.0300  664.  527.   -21.30978
 122000   48.80    -21.43318   0.0279  664.  490.   -21.31131
 122200   48.88    -21.43302   0.0241  663.  422.   -21.31135
 122400   48.96    -21.43288   0.0311  663.  546.   -21.31438
 122600   49.04    -21.43272   0.0235  663.  412.   -21.28550
 122800   49.12    -21.43251   0.0344  663.  604.   -21.27276
 123000   49.20    -21.43230   0.0330  662.  578.   -21.27416
 123200   49.28    -21.43211   0.0534  662.  936.   -21.27652
 123400   49.36    -21.43195   0.0458  663.  804.   -21.28428
 123600   49.44    -21.43177   0.0292  663.  513.   -21.28646
 123800   49.52    -21.43160   0.0421  663.  738.   -21.29014
 124000   49.60    -21.43145   0.0589  663. 1033.   -21.29586
 124200   49.68    -21.43130   0.0289  663.  507.   -21.29827
 124400   49.76    -21.43115   0.0361  663.  633.   -21.30262
 124600   49.84    -21.43100   0.0467  663.  819.   -21.30398
 124800   49.92    -21.43087   0.0347  663.  608.   -21.30834
 average properties 
 Epot               :  -21.4307224401763     
 Epot (accurate SCC):  -21.4308750758477     
 Ekin               :  3.779260052638968E-002
 Etot               :  -21.3929298396499     
 T                  :   662.998367617598     
 thermostating problem
 normal exit of md()

------------------------------------------------------------------------
 * finished run on 2021/03/15 at 00:23:15.824     
------------------------------------------------------------------------
 total:
 * wall-time:     0 d,  0 h, 26 min,  7.103 sec
 *  cpu-time:     0 d,  0 h, 25 min, 45.236 sec
 * ratio c/w:     0.986 speedup
 SCF:
 * wall-time:     0 d,  0 h,  0 min,  0.897 sec
 *  cpu-time:     0 d,  0 h,  0 min,  0.036 sec
 * ratio c/w:     0.040 speedup
 MD:
 * wall-time:     0 d,  0 h, 26 min,  4.983 sec
 *  cpu-time:     0 d,  0 h, 25 min, 45.160 sec
 * ratio c/w:     0.987 speedup

