      -----------------------------------------------------------      
     |                   =====================                   |     
     |                           x T B                           |     
     |                   =====================                   |     
     |                         S. Grimme                         |     
     |          Mulliken Center for Theoretical Chemistry        |     
     |                    University of Bonn                     |     
     |                 Version 6.1.4 (SAW190525)                 |     
      -----------------------------------------------------------      

   This program is distributed in the hope that it will be useful,
   but WITHOUT ANY WARRANTY; without even the implied warranty of
   MERCHANTABILITY or FITNESS FOR A PARTICULAR PURPOSE.
   
   FOR NON-COMMERCIAL, ACADEMIA USE ONLY.
   
   Cite this work as:
   S. Grimme, C. Bannwarth, P. Shushkov, J. Comput. Theory Chem., 2017,
   13, 1989-2009. DOI: 10.1021/acs.jctc.7b00118
   C. Bannwarth, S. Ehlert and S. Grimme., J. Comput. Theory Chem., 2019,
   just accepted. DOI: 10.1021/acs.jctc.8b01176
   
   for sTDA-xTB:
   S. Grimme and C. Bannwarth, J. Chem. Phys., 2016, 145, 054103.
   DOI: 10.1063/1.4959605
   
   in the mass-spec context:
   V. Asgeirsson, C. Bauer and S. Grimme, Chem. Sci., 2017, 8, 4879.
   DOI: 10.1039/c7sc00601b
   
   for metadynamics refer to:
   S. Grimme, J. Chem. Theory Comput. Article ASAP, 2019,
   DOI: 10.1021/acs.jctc.9b00143
   
   with help from (in alphabetical order)
   C. Bannwarth, F. Bohle, G. Brandenburg, E. Caldeweyher, M. Checinski,
   S. Dohm, S. Ehlert, S. Ehrlich, F. März, H. Neugebauer, J. Pisarek,
   P. Pracht, P. Shushkov, and S. Spicher.
   
 * started run on 2021/06/02 at 10:00:08.819     

           -------------------------------------------------
          |                Calculation Setup                |
           -------------------------------------------------

          program call               : /groups/kemi/koerstz/opt/xtb/6.1/bin/xtb path_point_20.xyz --gfn2 --acc 0.2 --chrg 0
          hostname                   : node305
          coordinate file            : path_point_20.xyz
          omp threads                :                     1
          number of atoms            :                     9
          number of electrons        :                    36
          charge                     :                     0
          spin                       :                   0.0
          first test random number   :      0.72923816553561


########################################################################
# WARNING! Please study the warnings concerning your input carefully
#  - XTBPATH is not set, using XTBHOME instead
########################################################################

           ------------------------------------------------- 
          |                 G F N 2 - x T B                 |
          | Geometry, Frequencies, Noncovalent interactions |
          |            JCTC 2018 parametrisation            |
           ------------------------------------------------- 
             k(s)              :                1.8500
             k(p)              :                2.2300
             k(d)              :                2.2300
             k(f)              :                2.0000
             kEN (H0ij)        :               -2.0000
             D4 a1             :                0.5200
             D4 a2             :                5.0000
             D4 s6             :                1.0000
             D4 s8             :                2.7000
             D4 s9             :                5.0000
             alphaj            :                2.0000

  Z AO/shell   Hii/eV     exponent
  1     Wed Apr 25 08:07:45 CEST 2018   EN: 2.200 GM2: 0.406  GM3: 0.0800  RAES: 1.40
     1s    -10.707211    1.230000
  6     Wed Apr 25 08:07:45 CEST 2018   EN: 2.550 GM2: 0.538  GM3: 0.1500  RAES: 3.00
     2s    -13.970922    2.096432
     2p    -10.063292    1.800000
  7     Wed Apr 25 08:07:45 CEST 2018   EN: 3.040 GM2: 0.461  GM3:-0.0640  RAES: 1.90
     2s    -16.686243    2.339881
     2p    -12.523956    2.014332
  8     Wed Apr 25 08:07:45 CEST 2018   EN: 3.440 GM2: 0.452  GM3:-0.0517  RAES: 1.80
     2s    -20.229985    2.439742
     2p    -15.503117    2.137023


            Z     q(EN)     CN     RAES       Cart. coordinates
     1  N   5.0   -0.42    2.02    1.90    -1.00249    -0.26284    -2.39878
     2  C   4.0    0.31    3.02    3.02    -0.81885    -1.57511    -0.35779
     3  N   5.0   -0.15    2.03    1.90    -2.90131    -2.16236     0.94043
     4  N   5.0   -0.15    1.00    1.90    -4.97344    -2.49345     1.42342
     5  O   6.0   -0.11    1.00    1.80     5.76307    -2.73667    -0.30019
     6  N   5.0   -0.14    2.01    1.90     3.52284    -2.41980    -0.68187
     7  C   4.0    0.13    3.01    3.02     1.57070    -2.32830     0.73278
     8  H   1.0    0.33    1.00    1.43    -2.75209     0.28753    -2.95064
     9  H   1.0    0.18    0.99    1.43     1.54637    -2.96119     2.68996

           ------------------------------------------------- 
          |        Self-Consistent Charge Iterations        |
           ------------------------------------------------- 
q/qsh data taken from xtbrestart
CAMM data taken from xtbrestart

          ...................................................
          :                      SETUP                      :
          :.................................................:
          :  # basis functions                  30          :
          :  # atomic orbitals                  30          :
          :  # shells                           16          :
          :  # electrons                        36          :
          :  max. iterations                   250          :
          :  Hamiltonian                  GFN2-xTB          :
          :  restarted?                       true          :
          :  GBSA solvation                  false          :
          :  PC potential                    false          :
          :  electronic temp.          300.0000000     K    :
          :  accuracy                    0.2000000          :
          :  -> integral cutoff          0.3198970E+02      :
          :  -> integral neglect         0.2000000E-08      :
          :  -> SCF convergence          0.2000000E-06 Eh   :
          :  -> wf. convergence          0.2000000E-04 e    :
          :  Broyden damping             0.4000000          :
          ...................................................

 iter      E             dE          RMSdq      gap      omega  full diag
   1    -20.9195047 -0.209195E+02  0.365E+00    0.78       0.0  T
   2    -18.8265679  0.209294E+01  0.120E+01    0.60       1.0  T
   3    -20.8680036 -0.204144E+01  0.430E+00    0.26       1.0  T
   4    -20.9766793 -0.108676E+00  0.268E+00    0.31       1.0  T
   5    -20.9161853  0.604940E-01  0.360E+00    0.20       1.0  T
   6    -20.9982002 -0.820149E-01  0.250E+00    0.16       1.0  T
   7    -21.0732298 -0.750296E-01  0.438E-01    0.15       1.0  T
   8    -21.0647994  0.843041E-02  0.857E-01    0.15       1.0  T
   9    -21.0676883 -0.288889E-02  0.770E-01    0.13       1.0  T
  10    -21.0737605 -0.607222E-02  0.348E-01    0.13       1.0  T
  11    -21.0749924 -0.123189E-02  0.157E-01    0.13       1.0  T
  12    -21.0752419 -0.249439E-03  0.650E-02    0.14       1.0  T
  13    -21.0752914 -0.495398E-04  0.824E-03    0.14       4.0  T
  14    -21.0752864  0.502634E-05  0.219E-02    0.14       1.5  T
  15    -21.0752902 -0.379267E-05  0.129E-02    0.14       2.6  T
  16    -21.0752922 -0.208133E-05  0.320E-03    0.14      10.4  T
  17    -21.0752924 -0.110317E-06  0.126E-03    0.14      26.5  T
  18    -21.0752924 -0.208832E-07  0.783E-05    0.14     425.6  T
  19    -21.0752924  0.637996E-10  0.102E-04    0.14     327.2  T

   *** convergence criteria satisfied after 19 iterations ***

         #    Occupation            Energy/Eh            Energy/eV
      -------------------------------------------------------------
         1        2.0000           -0.7529017             -20.4875
       ...           ...                  ...                  ...
        12        2.0000           -0.5502952             -14.9743
        13        2.0000           -0.5261436             -14.3171
        14        2.0000           -0.5081120             -13.8264
        15        2.0000           -0.5025318             -13.6746
        16        2.0000           -0.4335548             -11.7976
        17        2.0000           -0.4242211             -11.5436
        18        1.8673           -0.3666182              -9.9762 (HOMO)
        19        0.1327           -0.3615947              -9.8395 (LUMO)
        20                         -0.3458273              -9.4104
        21                         -0.2825736              -7.6892
        22                         -0.1845828              -5.0228
        23                          0.0268797               0.7314
       ...                                ...                  ...
        30                          0.8352798              22.7291
      -------------------------------------------------------------
                  HL-Gap            0.0050235 Eh            0.1367 eV
             Fermi-level           -0.3641065 Eh           -9.9078 eV

 SCC (total)                   0 d,  0 h,  0 min,  0.009 sec
 SCC setup                      ...        0 min,  0.000 sec (  1.464%)
 Dispersion                     ...        0 min,  0.000 sec (  0.678%)
 integral evaluation            ...        0 min,  0.001 sec ( 11.894%)
 zeroth order Hamiltonian       ...        0 min,  0.000 sec (  0.361%)
 iterations                     ...        0 min,  0.005 sec ( 61.724%)
 molecular gradient             ...        0 min,  0.002 sec ( 21.535%)
 printout                       ...        0 min,  0.000 sec (  1.940%)

         :::::::::::::::::::::::::::::::::::::::::::::::::::::
         ::                     SUMMARY                     ::
         :::::::::::::::::::::::::::::::::::::::::::::::::::::
         :: total energy              -20.832861131072 Eh   ::
         :: gradient norm               0.008983363769 Eh/α ::
         :: HOMO-LUMO gap               0.136696692797 eV   ::
         ::.................................................::
         :: SCC energy                -21.075292379446 Eh   ::
         :: -> isotropic ES             0.027112476889 Eh   ::
         :: -> anisotropic ES           0.003975371381 Eh   ::
         :: -> anisotropic XC           0.024493569483 Eh   ::
         :: -> dispersion              -0.005511902340 Eh   ::
         :: repulsion energy            0.242430436944 Eh   ::
         :: add. restraining            0.000000000000 Eh   ::
         :::::::::::::::::::::::::::::::::::::::::::::::::::::

           -------------------------------------------------
          |                Property Printout                |
           -------------------------------------------------

    * Orbital Energies and Occupations

         #    Occupation            Energy/Eh            Energy/eV
      -------------------------------------------------------------
         1        2.0000           -0.7529017             -20.4875
       ...           ...                  ...                  ...
         6        2.0000           -0.6324094             -17.2087
         7        2.0000           -0.6176605             -16.8074
         8        2.0000           -0.6041711             -16.4403
         9        2.0000           -0.5927092             -16.1284
        10        2.0000           -0.5844943             -15.9049
        11        2.0000           -0.5656399             -15.3918
        12        2.0000           -0.5502952             -14.9743
        13        2.0000           -0.5261436             -14.3171
        14        2.0000           -0.5081120             -13.8264
        15        2.0000           -0.5025318             -13.6746
        16        2.0000           -0.4335548             -11.7976
        17        2.0000           -0.4242211             -11.5436
        18        1.8673           -0.3666182              -9.9762 (HOMO)
        19        0.1327           -0.3615947              -9.8395 (LUMO)
        20                         -0.3458273              -9.4104
        21                         -0.2825736              -7.6892
        22                         -0.1845828              -5.0228
        23                          0.0268797               0.7314
        24                          0.0508451               1.3836
        25                          0.1662415               4.5237
        26                          0.2003658               5.4522
        27                          0.3309904               9.0067
        28                          0.4569354              12.4338
        29                          0.5996093              16.3162
        30                          0.8352798              22.7291
      -------------------------------------------------------------
                  HL-Gap            0.0050235 Eh            0.1367 eV
             Fermi-level           -0.3641065 Eh           -9.9078 eV

   #   Z        covCN         q      C6AA      α(0)
   1   7 N      1.794    -0.301    28.642     7.927
   2   6 C      2.816     0.151    24.714     8.145
   3   7 N      1.918     0.137    19.522     6.551
   4   7 N      0.984    -0.086    22.555     6.831
   5   8 O      0.927    -0.272    19.248     5.884
   6   7 N      1.847     0.169    19.008     6.461
   7   6 C      2.833    -0.029    28.718     8.782
   8   1 H      0.860     0.159     1.342     1.815
   9   1 H      0.925     0.072     2.063     2.246

 Mol. C6AA /au·bohr⁶  :       1305.040463
 Mol. C8AA /au·bohr⁸  :      29808.192251
 Mol. α(0) /au        :         54.642300


Wiberg/Mayer (AO) data.
largest (>0.10) Wiberg bond orders for each atom
          total WBO             WBO to atom ...
     1  N   3.087        C    2 1.528    H    8 0.945    N    4 0.174    O    5 0.126    N    3 0.125    N    6 0.116
     2  C   3.933        N    1 1.528    N    3 1.129    C    7 1.088    N    4 0.111
     3  N   3.684        N    4 2.270    C    2 1.129    N    1 0.125
     4  N   2.756        N    3 2.270    N    1 0.174    N    6 0.142    C    2 0.111
     5  O   1.969        N    6 1.493    C    7 0.236    N    1 0.126
     6  N   3.437        C    7 1.579    O    5 1.493    N    4 0.142    N    1 0.116
     7  C   3.942        N    6 1.579    C    2 1.088    H    9 0.916    O    5 0.236
     8  H   0.975        N    1 0.945
     9  H   0.981        C    7 0.916

molecular dipole:
                 x           y           z       tot (Debye)
 q only:       -1.133      -0.006       0.346
   full:       -1.356      -0.036       0.605       3.775
molecular quadrupole (traceless):
                xx          xy          yy          xz          yz          zz
 q only:       -6.832       3.605       3.212       1.761      -1.023       3.620
  q+dip:       -9.205       3.108       4.511       4.489      -1.767       4.694
   full:      -10.334       3.033       5.735       5.052      -1.435       4.599


           -------------------------------------------------
          | TOTAL ENERGY              -20.832861131072 Eh   |
          | GRADIENT NORM               0.008983363769 Eh/α |
          | HOMO-LUMO GAP               0.136696692797 eV   |
           -------------------------------------------------

------------------------------------------------------------------------
 * finished run on 2021/06/02 at 10:00:08.836     
------------------------------------------------------------------------
 total:
 * wall-time:     0 d,  0 h,  0 min,  0.016 sec
 *  cpu-time:     0 d,  0 h,  0 min,  0.016 sec
 * ratio c/w:     0.987 speedup
 SCF:
 * wall-time:     0 d,  0 h,  0 min,  0.009 sec
 *  cpu-time:     0 d,  0 h,  0 min,  0.009 sec
 * ratio c/w:     1.000 speedup

