      -----------------------------------------------------------      
     |                   =====================                   |     
     |                           x T B                           |     
     |                   =====================                   |     
     |                         S. Grimme                         |     
     |          Mulliken Center for Theoretical Chemistry        |     
     |                    University of Bonn                     |     
     |                 Version 6.1.4 (SAW190525)                 |     
      -----------------------------------------------------------      

   This program is distributed in the hope that it will be useful,
   but WITHOUT ANY WARRANTY; without even the implied warranty of
   MERCHANTABILITY or FITNESS FOR A PARTICULAR PURPOSE.
   
   FOR NON-COMMERCIAL, ACADEMIA USE ONLY.
   
   Cite this work as:
   S. Grimme, C. Bannwarth, P. Shushkov, J. Comput. Theory Chem., 2017,
   13, 1989-2009. DOI: 10.1021/acs.jctc.7b00118
   C. Bannwarth, S. Ehlert and S. Grimme., J. Comput. Theory Chem., 2019,
   just accepted. DOI: 10.1021/acs.jctc.8b01176
   
   for sTDA-xTB:
   S. Grimme and C. Bannwarth, J. Chem. Phys., 2016, 145, 054103.
   DOI: 10.1063/1.4959605
   
   in the mass-spec context:
   V. Asgeirsson, C. Bauer and S. Grimme, Chem. Sci., 2017, 8, 4879.
   DOI: 10.1039/c7sc00601b
   
   for metadynamics refer to:
   S. Grimme, J. Chem. Theory Comput. Article ASAP, 2019,
   DOI: 10.1021/acs.jctc.9b00143
   
   with help from (in alphabetical order)
   C. Bannwarth, F. Bohle, G. Brandenburg, E. Caldeweyher, M. Checinski,
   S. Dohm, S. Ehlert, S. Ehrlich, F. März, H. Neugebauer, J. Pisarek,
   P. Pracht, P. Shushkov, and S. Spicher.
   
 * started run on 2021/06/02 at 10:00:08.883     

           -------------------------------------------------
          |                Calculation Setup                |
           -------------------------------------------------

          program call               : /groups/kemi/koerstz/opt/xtb/6.1/bin/xtb path_point_11.xyz --gfn2 --acc 0.2 --chrg 0
          hostname                   : node305
          coordinate file            : path_point_11.xyz
          omp threads                :                     1
          number of atoms            :                     9
          number of electrons        :                    36
          charge                     :                     0
          spin                       :                   0.0
          first test random number   :      0.85581210104005


########################################################################
# WARNING! Please study the warnings concerning your input carefully
#  - XTBPATH is not set, using XTBHOME instead
########################################################################

           ------------------------------------------------- 
          |                 G F N 2 - x T B                 |
          | Geometry, Frequencies, Noncovalent interactions |
          |            JCTC 2018 parametrisation            |
           ------------------------------------------------- 
             k(s)              :                1.8500
             k(p)              :                2.2300
             k(d)              :                2.2300
             k(f)              :                2.0000
             kEN (H0ij)        :               -2.0000
             D4 a1             :                0.5200
             D4 a2             :                5.0000
             D4 s6             :                1.0000
             D4 s8             :                2.7000
             D4 s9             :                5.0000
             alphaj            :                2.0000

  Z AO/shell   Hii/eV     exponent
  1     Wed Apr 25 08:07:45 CEST 2018   EN: 2.200 GM2: 0.406  GM3: 0.0800  RAES: 1.40
     1s    -10.707211    1.230000
  6     Wed Apr 25 08:07:45 CEST 2018   EN: 2.550 GM2: 0.538  GM3: 0.1500  RAES: 3.00
     2s    -13.970922    2.096432
     2p    -10.063292    1.800000
  7     Wed Apr 25 08:07:45 CEST 2018   EN: 3.040 GM2: 0.461  GM3:-0.0640  RAES: 1.90
     2s    -16.686243    2.339881
     2p    -12.523956    2.014332
  8     Wed Apr 25 08:07:45 CEST 2018   EN: 3.440 GM2: 0.452  GM3:-0.0517  RAES: 1.80
     2s    -20.229985    2.439742
     2p    -15.503117    2.137023


            Z     q(EN)     CN     RAES       Cart. coordinates
     1  N   5.0   -0.42    2.02    1.90    -0.93107    -0.33335    -2.43898
     2  C   4.0    0.31    3.01    3.02    -0.84357    -1.68656    -0.41373
     3  N   5.0   -0.15    2.02    1.90    -2.92355    -2.13596     0.95208
     4  N   5.0   -0.15    1.00    1.90    -4.97636    -2.48237     1.44178
     5  O   6.0   -0.10    1.00    1.80     5.79074    -2.55761    -0.61533
     6  N   5.0   -0.15    2.01    1.90     3.54127    -2.50571    -0.45465
     7  C   4.0    0.14    3.01    3.02     1.53895    -2.38170     0.80384
     8  H   1.0    0.33    1.00    1.43    -2.64971     0.38321    -2.93250
     9  H   1.0    0.18    1.00    1.43     1.40809    -2.95215     2.75482

           ------------------------------------------------- 
          |        Self-Consistent Charge Iterations        |
           ------------------------------------------------- 
q/qsh data taken from xtbrestart
CAMM data taken from xtbrestart

          ...................................................
          :                      SETUP                      :
          :.................................................:
          :  # basis functions                  30          :
          :  # atomic orbitals                  30          :
          :  # shells                           16          :
          :  # electrons                        36          :
          :  max. iterations                   250          :
          :  Hamiltonian                  GFN2-xTB          :
          :  restarted?                       true          :
          :  GBSA solvation                  false          :
          :  PC potential                    false          :
          :  electronic temp.          300.0000000     K    :
          :  accuracy                    0.2000000          :
          :  -> integral cutoff          0.3198970E+02      :
          :  -> integral neglect         0.2000000E-08      :
          :  -> SCF convergence          0.2000000E-06 Eh   :
          :  -> wf. convergence          0.2000000E-04 e    :
          :  Broyden damping             0.4000000          :
          ...................................................

 iter      E             dE          RMSdq      gap      omega  full diag
   1    -21.0671139 -0.210671E+02  0.109E+00    0.17       0.0  T
   2    -20.8446818  0.222432E+00  0.454E+00    1.11       1.0  T
   3    -20.9840247 -0.139343E+00  0.277E+00    0.26       1.0  T
   4    -21.0811860 -0.971612E-01  0.368E-01    0.17       1.0  T
   5    -21.0825899 -0.140393E-02  0.125E-01    0.17       1.0  T
   6    -21.0812705  0.131934E-02  0.338E-01    0.17       1.0  T
   7    -21.0827196 -0.144902E-02  0.479E-02    0.17       1.0  T
   8    -21.0823321  0.387506E-03  0.179E-01    0.17       1.0  T
   9    -21.0823680 -0.359155E-04  0.170E-01    0.17       1.0  T
  10    -21.0827413 -0.373312E-03  0.186E-02    0.17       1.8  T
  11    -21.0827437 -0.243376E-05  0.772E-03    0.17       4.3  T
  12    -21.0827443 -0.594366E-06  0.180E-03    0.17      18.5  T
  13    -21.0827443 -0.135850E-07  0.106E-03    0.17      31.4  T
  14    -21.0827443 -0.142991E-07  0.534E-05    0.17     624.4  T
  15    -21.0827443  0.870571E-09  0.264E-04    0.17     126.2  T
  16    -21.0827443 -0.714913E-09  0.113E-04    0.17     293.8  T

   *** convergence criteria satisfied after 16 iterations ***

         #    Occupation            Energy/Eh            Energy/eV
      -------------------------------------------------------------
         1        2.0000           -0.7551698             -20.5492
       ...           ...                  ...                  ...
        12        2.0000           -0.5543740             -15.0853
        13        2.0000           -0.5152254             -14.0200
        14        2.0000           -0.5054112             -13.7529
        15        2.0000           -0.4995725             -13.5941
        16        2.0000           -0.4298966             -11.6981
        17        2.0000           -0.4239736             -11.5369
        18        1.9258           -0.3541191              -9.6361 (HOMO)
        19        0.0742           -0.3479323              -9.4677 (LUMO)
        20                         -0.3307740              -9.0008
        21                         -0.2764666              -7.5230
        22                         -0.1811441              -4.9292
        23                          0.0190716               0.5190
       ...                                ...                  ...
        30                          0.8776473              23.8820
      -------------------------------------------------------------
                  HL-Gap            0.0061868 Eh            0.1684 eV
             Fermi-level           -0.3510257 Eh           -9.5519 eV

 SCC (total)                   0 d,  0 h,  0 min,  0.008 sec
 SCC setup                      ...        0 min,  0.000 sec (  1.603%)
 Dispersion                     ...        0 min,  0.000 sec (  0.740%)
 integral evaluation            ...        0 min,  0.001 sec ( 13.307%)
 zeroth order Hamiltonian       ...        0 min,  0.000 sec (  0.415%)
 iterations                     ...        0 min,  0.005 sec ( 57.380%)
 molecular gradient             ...        0 min,  0.002 sec ( 23.997%)
 printout                       ...        0 min,  0.000 sec (  2.116%)

         :::::::::::::::::::::::::::::::::::::::::::::::::::::
         ::                     SUMMARY                     ::
         :::::::::::::::::::::::::::::::::::::::::::::::::::::
         :: total energy              -20.828487136285 Eh   ::
         :: gradient norm               0.051704161312 Eh/α ::
         :: HOMO-LUMO gap               0.168350329294 eV   ::
         ::.................................................::
         :: SCC energy                -21.082744341923 Eh   ::
         :: -> isotropic ES             0.025428251308 Eh   ::
         :: -> anisotropic ES           0.004609358504 Eh   ::
         :: -> anisotropic XC           0.024529977708 Eh   ::
         :: -> dispersion              -0.005514574064 Eh   ::
         :: repulsion energy            0.254256460506 Eh   ::
         :: add. restraining            0.000000000000 Eh   ::
         :::::::::::::::::::::::::::::::::::::::::::::::::::::

           -------------------------------------------------
          |                Property Printout                |
           -------------------------------------------------

    * Orbital Energies and Occupations

         #    Occupation            Energy/Eh            Energy/eV
      -------------------------------------------------------------
         1        2.0000           -0.7551698             -20.5492
       ...           ...                  ...                  ...
         6        2.0000           -0.6325234             -17.2118
         7        2.0000           -0.6119846             -16.6529
         8        2.0000           -0.6073322             -16.5264
         9        2.0000           -0.5981061             -16.2753
        10        2.0000           -0.5893647             -16.0374
        11        2.0000           -0.5707098             -15.5298
        12        2.0000           -0.5543740             -15.0853
        13        2.0000           -0.5152254             -14.0200
        14        2.0000           -0.5054112             -13.7529
        15        2.0000           -0.4995725             -13.5941
        16        2.0000           -0.4298966             -11.6981
        17        2.0000           -0.4239736             -11.5369
        18        1.9258           -0.3541191              -9.6361 (HOMO)
        19        0.0742           -0.3479323              -9.4677 (LUMO)
        20                         -0.3307740              -9.0008
        21                         -0.2764666              -7.5230
        22                         -0.1811441              -4.9292
        23                          0.0190716               0.5190
        24                          0.0585000               1.5919
        25                          0.1700292               4.6267
        26                          0.1926896               5.2434
        27                          0.3210129               8.7352
        28                          0.4591839              12.4950
        29                          0.7446867              20.2640
        30                          0.8776473              23.8820
      -------------------------------------------------------------
                  HL-Gap            0.0061868 Eh            0.1684 eV
             Fermi-level           -0.3510257 Eh           -9.5519 eV

   #   Z        covCN         q      C6AA      α(0)
   1   7 N      1.788    -0.320    29.135     7.995
   2   6 C      2.814     0.141    24.918     8.179
   3   7 N      1.914     0.127    19.700     6.581
   4   7 N      0.984    -0.108    22.993     6.897
   5   8 O      0.924    -0.249    18.866     5.825
   6   7 N      1.844     0.207    18.404     6.358
   7   6 C      2.831    -0.035    28.854     8.802
   8   1 H      0.860     0.153     1.381     1.841
   9   1 H      0.926     0.085     1.931     2.173

 Mol. C6AA /au·bohr⁶  :       1305.140217
 Mol. C8AA /au·bohr⁸  :      29833.989387
 Mol. α(0) /au        :         54.649367


Wiberg/Mayer (AO) data.
largest (>0.10) Wiberg bond orders for each atom
          total WBO             WBO to atom ...
     1  N   3.079        C    2 1.518    H    8 0.945    N    4 0.152    N    6 0.143    O    5 0.133    N    3 0.125
     2  C   3.928        N    1 1.518    N    3 1.146    C    7 1.039    N    4 0.135
     3  N   3.696        N    4 2.252    C    2 1.146    N    1 0.125
     4  N   2.768        N    3 2.252    N    6 0.172    N    1 0.152    C    2 0.135
     5  O   2.034        N    6 1.511    C    7 0.267    N    1 0.133
     6  N   3.593        C    7 1.640    O    5 1.511    N    4 0.172    N    1 0.143
     7  C   3.947        N    6 1.640    C    2 1.039    H    9 0.904    O    5 0.267
     8  H   0.976        N    1 0.945
     9  H   0.984        C    7 0.904

molecular dipole:
                 x           y           z       tot (Debye)
 q only:       -0.702      -0.124       0.504
   full:       -0.899      -0.132       0.752       2.998
molecular quadrupole (traceless):
                xx          xy          yy          xz          yz          zz
 q only:       -6.576       1.546       3.752       2.660      -1.476       2.824
  q+dip:       -8.824       0.790       5.073       5.504      -2.266       3.751
   full:      -10.022       0.686       6.211       6.198      -2.052       3.811


           -------------------------------------------------
          | TOTAL ENERGY              -20.828487136285 Eh   |
          | GRADIENT NORM               0.051704161312 Eh/α |
          | HOMO-LUMO GAP               0.168350329294 eV   |
           -------------------------------------------------

------------------------------------------------------------------------
 * finished run on 2021/06/02 at 10:00:08.900     
------------------------------------------------------------------------
 total:
 * wall-time:     0 d,  0 h,  0 min,  0.016 sec
 *  cpu-time:     0 d,  0 h,  0 min,  0.015 sec
 * ratio c/w:     0.986 speedup
 SCF:
 * wall-time:     0 d,  0 h,  0 min,  0.008 sec
 *  cpu-time:     0 d,  0 h,  0 min,  0.008 sec
 * ratio c/w:     1.000 speedup

