      -----------------------------------------------------------      
     |                   =====================                   |     
     |                           x T B                           |     
     |                   =====================                   |     
     |                         S. Grimme                         |     
     |          Mulliken Center for Theoretical Chemistry        |     
     |                    University of Bonn                     |     
     |                 Version 6.1.4 (SAW190525)                 |     
      -----------------------------------------------------------      

   This program is distributed in the hope that it will be useful,
   but WITHOUT ANY WARRANTY; without even the implied warranty of
   MERCHANTABILITY or FITNESS FOR A PARTICULAR PURPOSE.
   
   FOR NON-COMMERCIAL, ACADEMIA USE ONLY.
   
   Cite this work as:
   S. Grimme, C. Bannwarth, P. Shushkov, J. Comput. Theory Chem., 2017,
   13, 1989-2009. DOI: 10.1021/acs.jctc.7b00118
   C. Bannwarth, S. Ehlert and S. Grimme., J. Comput. Theory Chem., 2019,
   just accepted. DOI: 10.1021/acs.jctc.8b01176
   
   for sTDA-xTB:
   S. Grimme and C. Bannwarth, J. Chem. Phys., 2016, 145, 054103.
   DOI: 10.1063/1.4959605
   
   in the mass-spec context:
   V. Asgeirsson, C. Bauer and S. Grimme, Chem. Sci., 2017, 8, 4879.
   DOI: 10.1039/c7sc00601b
   
   for metadynamics refer to:
   S. Grimme, J. Chem. Theory Comput. Article ASAP, 2019,
   DOI: 10.1021/acs.jctc.9b00143
   
   with help from (in alphabetical order)
   C. Bannwarth, F. Bohle, G. Brandenburg, E. Caldeweyher, M. Checinski,
   S. Dohm, S. Ehlert, S. Ehrlich, F. März, H. Neugebauer, J. Pisarek,
   P. Pracht, P. Shushkov, and S. Spicher.
   
 * started run on 2021/06/02 at 10:00:08.628     

           -------------------------------------------------
          |                Calculation Setup                |
           -------------------------------------------------

          program call               : /groups/kemi/koerstz/opt/xtb/6.1/bin/xtb path_point_4.xyz --gfn2 --acc 0.2 --chrg 0
          hostname                   : node305
          coordinate file            : path_point_4.xyz
          omp threads                :                     1
          number of atoms            :                     9
          number of electrons        :                    36
          charge                     :                     0
          spin                       :                   0.0
          first test random number   :      0.88247666787846


########################################################################
# WARNING! Please study the warnings concerning your input carefully
#  - XTBPATH is not set, using XTBHOME instead
########################################################################

           ------------------------------------------------- 
          |                 G F N 2 - x T B                 |
          | Geometry, Frequencies, Noncovalent interactions |
          |            JCTC 2018 parametrisation            |
           ------------------------------------------------- 
             k(s)              :                1.8500
             k(p)              :                2.2300
             k(d)              :                2.2300
             k(f)              :                2.0000
             kEN (H0ij)        :               -2.0000
             D4 a1             :                0.5200
             D4 a2             :                5.0000
             D4 s6             :                1.0000
             D4 s8             :                2.7000
             D4 s9             :                5.0000
             alphaj            :                2.0000

  Z AO/shell   Hii/eV     exponent
  1     Wed Apr 25 08:07:45 CEST 2018   EN: 2.200 GM2: 0.406  GM3: 0.0800  RAES: 1.40
     1s    -10.707211    1.230000
  6     Wed Apr 25 08:07:45 CEST 2018   EN: 2.550 GM2: 0.538  GM3: 0.1500  RAES: 3.00
     2s    -13.970922    2.096432
     2p    -10.063292    1.800000
  7     Wed Apr 25 08:07:45 CEST 2018   EN: 3.040 GM2: 0.461  GM3:-0.0640  RAES: 1.90
     2s    -16.686243    2.339881
     2p    -12.523956    2.014332
  8     Wed Apr 25 08:07:45 CEST 2018   EN: 3.440 GM2: 0.452  GM3:-0.0517  RAES: 1.80
     2s    -20.229985    2.439742
     2p    -15.503117    2.137023


            Z     q(EN)     CN     RAES       Cart. coordinates
     1  N   5.0   -0.42    2.01    1.90    -0.94899    -0.31332    -2.43615
     2  C   4.0    0.32    3.01    3.02    -0.84204    -1.65041    -0.40226
     3  N   5.0   -0.15    2.02    1.90    -2.90825    -2.08578     0.99727
     4  N   5.0   -0.15    1.00    1.90    -4.96817    -2.59727     1.37368
     5  O   6.0   -0.10    1.00    1.80     5.79726    -2.62172    -0.57329
     6  N   5.0   -0.14    2.01    1.90     3.51882    -2.55816    -0.51401
     7  C   4.0    0.14    3.01    3.02     1.54647    -2.33044     0.80460
     8  H   1.0    0.33    1.00    1.43    -2.66955     0.41070    -2.91483
     9  H   1.0    0.18    0.99    1.43     1.42925    -2.90580     2.76231

           ------------------------------------------------- 
          |        Self-Consistent Charge Iterations        |
           ------------------------------------------------- 
q/qsh data taken from xtbrestart
CAMM data taken from xtbrestart

          ...................................................
          :                      SETUP                      :
          :.................................................:
          :  # basis functions                  30          :
          :  # atomic orbitals                  30          :
          :  # shells                           16          :
          :  # electrons                        36          :
          :  max. iterations                   250          :
          :  Hamiltonian                  GFN2-xTB          :
          :  restarted?                       true          :
          :  GBSA solvation                  false          :
          :  PC potential                    false          :
          :  electronic temp.          300.0000000     K    :
          :  accuracy                    0.2000000          :
          :  -> integral cutoff          0.3198970E+02      :
          :  -> integral neglect         0.2000000E-08      :
          :  -> SCF convergence          0.2000000E-06 Eh   :
          :  -> wf. convergence          0.2000000E-04 e    :
          :  Broyden damping             0.4000000          :
          ...................................................

 iter      E             dE          RMSdq      gap      omega  full diag
   1    -21.0619074 -0.210619E+02  0.977E-01    0.21       0.0  T
   2    -20.8548302  0.207077E+00  0.429E+00    1.01       1.0  T
   3    -21.0177869 -0.162957E+00  0.208E+00    0.26       1.0  T
   4    -21.0742414 -0.564545E-01  0.962E-02    0.21       1.0  T
   5    -21.0741993  0.421296E-04  0.907E-02    0.21       1.0  T
   6    -21.0738340  0.365248E-03  0.189E-01    0.21       1.0  T
   7    -21.0741878 -0.353778E-03  0.900E-02    0.21       1.0  T
   8    -21.0742781 -0.902892E-04  0.351E-02    0.21       1.0  T
   9    -21.0742522  0.258432E-04  0.563E-02    0.21       1.0  T
  10    -21.0742933 -0.410593E-04  0.654E-03    0.21       5.1  T
  11    -21.0742938 -0.460690E-06  0.247E-03    0.21      13.5  T
  12    -21.0742938 -0.574524E-07  0.662E-04    0.21      50.3  T
  13    -21.0742938  0.699794E-08  0.932E-04    0.21      35.8  T
  14    -21.0742938 -0.104714E-07  0.176E-04    0.21     189.3  T
  15    -21.0742938 -0.389388E-09  0.379E-05    0.21     879.2  T

   *** convergence criteria satisfied after 15 iterations ***

         #    Occupation            Energy/Eh            Energy/eV
      -------------------------------------------------------------
         1        2.0000           -0.7506188             -20.4254
       ...           ...                  ...                  ...
        12        2.0000           -0.5539522             -15.0738
        13        2.0000           -0.5170820             -14.0705
        14        2.0000           -0.5057212             -13.7614
        15        2.0000           -0.5010331             -13.6338
        16        2.0000           -0.4303739             -11.7111
        17        2.0000           -0.4278390             -11.6421
        18        1.9639           -0.3601081              -9.7990 (HOMO)
        19        0.0361           -0.3525143              -9.5924 (LUMO)
        20                         -0.3363677              -9.1530
        21                         -0.2831904              -7.7060
        22                         -0.1887380              -5.1358
        23                          0.0191038               0.5198
       ...                                ...                  ...
        30                          0.8250930              22.4519
      -------------------------------------------------------------
                  HL-Gap            0.0075938 Eh            0.2066 eV
             Fermi-level           -0.3563112 Eh           -9.6957 eV

 SCC (total)                   0 d,  0 h,  0 min,  0.008 sec
 SCC setup                      ...        0 min,  0.000 sec (  1.645%)
 Dispersion                     ...        0 min,  0.000 sec (  0.720%)
 integral evaluation            ...        0 min,  0.001 sec ( 13.891%)
 zeroth order Hamiltonian       ...        0 min,  0.000 sec (  0.417%)
 iterations                     ...        0 min,  0.004 sec ( 56.734%)
 molecular gradient             ...        0 min,  0.002 sec ( 24.160%)
 printout                       ...        0 min,  0.000 sec (  1.947%)

         :::::::::::::::::::::::::::::::::::::::::::::::::::::
         ::                     SUMMARY                     ::
         :::::::::::::::::::::::::::::::::::::::::::::::::::::
         :: total energy              -20.830172104532 Eh   ::
         :: gradient norm               0.023342239074 Eh/α ::
         :: HOMO-LUMO gap               0.206636867213 eV   ::
         ::.................................................::
         :: SCC energy                -21.074293818869 Eh   ::
         :: -> isotropic ES             0.025768291918 Eh   ::
         :: -> anisotropic ES           0.004343770278 Eh   ::
         :: -> anisotropic XC           0.024573665376 Eh   ::
         :: -> dispersion              -0.005506686182 Eh   ::
         :: repulsion energy            0.244120834203 Eh   ::
         :: add. restraining            0.000000000000 Eh   ::
         :::::::::::::::::::::::::::::::::::::::::::::::::::::

           -------------------------------------------------
          |                Property Printout                |
           -------------------------------------------------

    * Orbital Energies and Occupations

         #    Occupation            Energy/Eh            Energy/eV
      -------------------------------------------------------------
         1        2.0000           -0.7506188             -20.4254
       ...           ...                  ...                  ...
         6        2.0000           -0.6321984             -17.2030
         7        2.0000           -0.6097811             -16.5930
         8        2.0000           -0.6064908             -16.5035
         9        2.0000           -0.5948434             -16.1865
        10        2.0000           -0.5878512             -15.9962
        11        2.0000           -0.5700418             -15.5116
        12        2.0000           -0.5539522             -15.0738
        13        2.0000           -0.5170820             -14.0705
        14        2.0000           -0.5057212             -13.7614
        15        2.0000           -0.5010331             -13.6338
        16        2.0000           -0.4303739             -11.7111
        17        2.0000           -0.4278390             -11.6421
        18        1.9639           -0.3601081              -9.7990 (HOMO)
        19        0.0361           -0.3525143              -9.5924 (LUMO)
        20                         -0.3363677              -9.1530
        21                         -0.2831904              -7.7060
        22                         -0.1887380              -5.1358
        23                          0.0191038               0.5198
        24                          0.0565347               1.5384
        25                          0.1677578               4.5649
        26                          0.1826851               4.9711
        27                          0.3164326               8.6106
        28                          0.4538706              12.3504
        29                          0.6868769              18.6909
        30                          0.8250930              22.4519
      -------------------------------------------------------------
                  HL-Gap            0.0075938 Eh            0.2066 eV
             Fermi-level           -0.3563112 Eh           -9.6957 eV

   #   Z        covCN         q      C6AA      α(0)
   1   7 N      1.787    -0.313    28.947     7.969
   2   6 C      2.815     0.145    24.836     8.165
   3   7 N      1.914     0.121    19.790     6.596
   4   7 N      0.985    -0.105    22.924     6.886
   5   8 O      0.924    -0.256    18.972     5.841
   6   7 N      1.845     0.197    18.571     6.387
   7   6 C      2.831    -0.030    28.744     8.786
   8   1 H      0.860     0.156     1.360     1.827
   9   1 H      0.925     0.085     1.928     2.172

 Mol. C6AA /au·bohr⁶  :       1304.355019
 Mol. C8AA /au·bohr⁸  :      29815.243351
 Mol. α(0) /au        :         54.628061


Wiberg/Mayer (AO) data.
largest (>0.10) Wiberg bond orders for each atom
          total WBO             WBO to atom ...
     1  N   3.116        C    2 1.534    H    8 0.943    N    4 0.157    N    6 0.147    O    5 0.140    N    3 0.127
     2  C   3.937        N    1 1.534    N    3 1.136    C    7 1.046    N    4 0.127
     3  N   3.696        N    4 2.249    C    2 1.136    N    1 0.127
     4  N   2.783        N    3 2.249    N    6 0.186    N    1 0.157    C    2 0.127
     5  O   2.037        N    6 1.507    C    7 0.259    N    1 0.140
     6  N   3.605        C    7 1.630    O    5 1.507    N    4 0.186    N    1 0.147
     7  C   3.948        N    6 1.630    C    2 1.046    H    9 0.905    O    5 0.259
     8  H   0.975        N    1 0.943
     9  H   0.989        C    7 0.905

molecular dipole:
                 x           y           z       tot (Debye)
 q only:       -0.789      -0.067       0.483
   full:       -0.986      -0.065       0.740       3.138
molecular quadrupole (traceless):
                xx          xy          yy          xz          yz          zz
 q only:       -6.834       1.788       3.630       2.542      -1.439       3.204
  q+dip:       -9.075       0.947       4.893       5.299      -2.265       4.182
   full:      -10.233       0.807       6.045       5.928      -2.074       4.188


           -------------------------------------------------
          | TOTAL ENERGY              -20.830172104532 Eh   |
          | GRADIENT NORM               0.023342239074 Eh/α |
          | HOMO-LUMO GAP               0.206636867213 eV   |
           -------------------------------------------------

------------------------------------------------------------------------
 * finished run on 2021/06/02 at 10:00:08.643     
------------------------------------------------------------------------
 total:
 * wall-time:     0 d,  0 h,  0 min,  0.015 sec
 *  cpu-time:     0 d,  0 h,  0 min,  0.015 sec
 * ratio c/w:     0.987 speedup
 SCF:
 * wall-time:     0 d,  0 h,  0 min,  0.008 sec
 *  cpu-time:     0 d,  0 h,  0 min,  0.008 sec
 * ratio c/w:     1.000 speedup

