      -----------------------------------------------------------      
     |                   =====================                   |     
     |                           x T B                           |     
     |                   =====================                   |     
     |                         S. Grimme                         |     
     |          Mulliken Center for Theoretical Chemistry        |     
     |                    University of Bonn                     |     
     |                 Version 6.1.4 (SAW190525)                 |     
      -----------------------------------------------------------      

   This program is distributed in the hope that it will be useful,
   but WITHOUT ANY WARRANTY; without even the implied warranty of
   MERCHANTABILITY or FITNESS FOR A PARTICULAR PURPOSE.
   
   FOR NON-COMMERCIAL, ACADEMIA USE ONLY.
   
   Cite this work as:
   S. Grimme, C. Bannwarth, P. Shushkov, J. Comput. Theory Chem., 2017,
   13, 1989-2009. DOI: 10.1021/acs.jctc.7b00118
   C. Bannwarth, S. Ehlert and S. Grimme., J. Comput. Theory Chem., 2019,
   just accepted. DOI: 10.1021/acs.jctc.8b01176
   
   for sTDA-xTB:
   S. Grimme and C. Bannwarth, J. Chem. Phys., 2016, 145, 054103.
   DOI: 10.1063/1.4959605
   
   in the mass-spec context:
   V. Asgeirsson, C. Bauer and S. Grimme, Chem. Sci., 2017, 8, 4879.
   DOI: 10.1039/c7sc00601b
   
   for metadynamics refer to:
   S. Grimme, J. Chem. Theory Comput. Article ASAP, 2019,
   DOI: 10.1021/acs.jctc.9b00143
   
   with help from (in alphabetical order)
   C. Bannwarth, F. Bohle, G. Brandenburg, E. Caldeweyher, M. Checinski,
   S. Dohm, S. Ehlert, S. Ehrlich, F. März, H. Neugebauer, J. Pisarek,
   P. Pracht, P. Shushkov, and S. Spicher.
   
 * started run on 2021/06/02 at 10:00:08.968     

           -------------------------------------------------
          |                Calculation Setup                |
           -------------------------------------------------

          program call               : /groups/kemi/koerstz/opt/xtb/6.1/bin/xtb path_point_13.xyz --gfn2 --acc 0.2 --chrg 0
          hostname                   : node305
          coordinate file            : path_point_13.xyz
          omp threads                :                     1
          number of atoms            :                     9
          number of electrons        :                    36
          charge                     :                     0
          spin                       :                   0.0
          first test random number   :      0.23866123393467


########################################################################
# WARNING! Please study the warnings concerning your input carefully
#  - XTBPATH is not set, using XTBHOME instead
########################################################################

           ------------------------------------------------- 
          |                 G F N 2 - x T B                 |
          | Geometry, Frequencies, Noncovalent interactions |
          |            JCTC 2018 parametrisation            |
           ------------------------------------------------- 
             k(s)              :                1.8500
             k(p)              :                2.2300
             k(d)              :                2.2300
             k(f)              :                2.0000
             kEN (H0ij)        :               -2.0000
             D4 a1             :                0.5200
             D4 a2             :                5.0000
             D4 s6             :                1.0000
             D4 s8             :                2.7000
             D4 s9             :                5.0000
             alphaj            :                2.0000

  Z AO/shell   Hii/eV     exponent
  1     Wed Apr 25 08:07:45 CEST 2018   EN: 2.200 GM2: 0.406  GM3: 0.0800  RAES: 1.40
     1s    -10.707211    1.230000
  6     Wed Apr 25 08:07:45 CEST 2018   EN: 2.550 GM2: 0.538  GM3: 0.1500  RAES: 3.00
     2s    -13.970922    2.096432
     2p    -10.063292    1.800000
  7     Wed Apr 25 08:07:45 CEST 2018   EN: 3.040 GM2: 0.461  GM3:-0.0640  RAES: 1.90
     2s    -16.686243    2.339881
     2p    -12.523956    2.014332
  8     Wed Apr 25 08:07:45 CEST 2018   EN: 3.440 GM2: 0.452  GM3:-0.0517  RAES: 1.80
     2s    -20.229985    2.439742
     2p    -15.503117    2.137023


            Z     q(EN)     CN     RAES       Cart. coordinates
     1  N   5.0   -0.42    2.02    1.90    -0.94694    -0.31768    -2.43005
     2  C   4.0    0.31    3.01    3.02    -0.83808    -1.66179    -0.40130
     3  N   5.0   -0.15    2.02    1.90    -2.91861    -2.14182     0.94949
     4  N   5.0   -0.15    1.00    1.90    -4.97571    -2.48483     1.43770
     5  O   6.0   -0.10    1.00    1.80     5.78459    -2.59740    -0.54530
     6  N   5.0   -0.14    2.01    1.90     3.53717    -2.48662    -0.50515
     7  C   4.0    0.14    3.01    3.02     1.54600    -2.36984     0.78805
     8  H   1.0    0.33    1.00    1.43    -2.67246     0.36194    -2.93653
     9  H   1.0    0.18    1.00    1.43     1.43882    -2.95416     2.74040

           ------------------------------------------------- 
          |        Self-Consistent Charge Iterations        |
           ------------------------------------------------- 
q/qsh data taken from xtbrestart
CAMM data taken from xtbrestart

          ...................................................
          :                      SETUP                      :
          :.................................................:
          :  # basis functions                  30          :
          :  # atomic orbitals                  30          :
          :  # shells                           16          :
          :  # electrons                        36          :
          :  max. iterations                   250          :
          :  Hamiltonian                  GFN2-xTB          :
          :  restarted?                       true          :
          :  GBSA solvation                  false          :
          :  PC potential                    false          :
          :  electronic temp.          300.0000000     K    :
          :  accuracy                    0.2000000          :
          :  -> integral cutoff          0.3198970E+02      :
          :  -> integral neglect         0.2000000E-08      :
          :  -> SCF convergence          0.2000000E-06 Eh   :
          :  -> wf. convergence          0.2000000E-04 e    :
          :  Broyden damping             0.4000000          :
          ...................................................

 iter      E             dE          RMSdq      gap      omega  full diag
   1    -21.0459261 -0.210459E+02  0.174E+00    0.19       0.0  T
   2    -20.6983825  0.347544E+00  0.576E+00    0.39       1.0  T
   3    -20.9056261 -0.207244E+00  0.373E+00    0.34       1.0  T
   4    -21.0801371 -0.174511E+00  0.506E-01    0.17       1.0  T
   5    -21.0802493 -0.112214E-03  0.481E-01    0.17       1.0  T
   6    -21.0818179 -0.156867E-02  0.304E-01    0.16       1.0  T
   7    -21.0811008  0.717192E-03  0.388E-01    0.16       1.0  T
   8    -21.0822152 -0.111441E-02  0.252E-01    0.16       1.0  T
   9    -21.0830316 -0.816417E-03  0.838E-03    0.16       4.0  T
  10    -21.0830082  0.234222E-04  0.430E-02    0.16       1.0  T
  11    -21.0830290 -0.208061E-04  0.156E-02    0.16       2.1  T
  12    -21.0830315 -0.255556E-05  0.688E-03    0.16       4.8  T
  13    -21.0830321 -0.605120E-06  0.797E-04    0.16      41.8  T
  14    -21.0830321 -0.496235E-08  0.457E-04    0.16      72.9  T
  15    -21.0830321  0.536547E-08  0.792E-04    0.16      42.1  T
  16    -21.0830321 -0.806249E-08  0.511E-05    0.16     652.0  T
  17    -21.0830321 -0.280487E-10  0.221E-05    0.16    1505.4  T

   *** convergence criteria satisfied after 17 iterations ***

         #    Occupation            Energy/Eh            Energy/eV
      -------------------------------------------------------------
         1        2.0000           -0.7552514             -20.5514
       ...           ...                  ...                  ...
        12        2.0000           -0.5542763             -15.0826
        13        2.0000           -0.5165569             -14.0562
        14        2.0000           -0.5054953             -13.7552
        15        2.0000           -0.5008032             -13.6275
        16        2.0000           -0.4285039             -11.6602
        17        2.0000           -0.4251498             -11.5689
        18        1.9154           -0.3556635              -9.6781 (HOMO)
        19        0.0846           -0.3497361              -9.5168 (LUMO)
        20                         -0.3330675              -9.0632
        21                         -0.2764232              -7.5219
        22                         -0.1805445              -4.9129
        23                          0.0233949               0.6366
       ...                                ...                  ...
        30                          0.8698261              23.6692
      -------------------------------------------------------------
                  HL-Gap            0.0059274 Eh            0.1613 eV
             Fermi-level           -0.3526998 Eh           -9.5974 eV

 SCC (total)                   0 d,  0 h,  0 min,  0.009 sec
 SCC setup                      ...        0 min,  0.000 sec (  1.470%)
 Dispersion                     ...        0 min,  0.000 sec (  0.748%)
 integral evaluation            ...        0 min,  0.001 sec ( 12.978%)
 zeroth order Hamiltonian       ...        0 min,  0.000 sec (  0.445%)
 iterations                     ...        0 min,  0.005 sec ( 57.432%)
 molecular gradient             ...        0 min,  0.002 sec ( 24.506%)
 printout                       ...        0 min,  0.000 sec (  2.007%)

         :::::::::::::::::::::::::::::::::::::::::::::::::::::
         ::                     SUMMARY                     ::
         :::::::::::::::::::::::::::::::::::::::::::::::::::::
         :: total energy              -20.829745335701 Eh   ::
         :: gradient norm               0.050410727700 Eh/α ::
         :: HOMO-LUMO gap               0.161293465504 eV   ::
         ::.................................................::
         :: SCC energy                -21.083032134081 Eh   ::
         :: -> isotropic ES             0.025371985661 Eh   ::
         :: -> anisotropic ES           0.004576736291 Eh   ::
         :: -> anisotropic XC           0.024331593884 Eh   ::
         :: -> dispersion              -0.005515987176 Eh   ::
         :: repulsion energy            0.253286039547 Eh   ::
         :: add. restraining            0.000000000000 Eh   ::
         :::::::::::::::::::::::::::::::::::::::::::::::::::::

           -------------------------------------------------
          |                Property Printout                |
           -------------------------------------------------

    * Orbital Energies and Occupations

         #    Occupation            Energy/Eh            Energy/eV
      -------------------------------------------------------------
         1        2.0000           -0.7552514             -20.5514
       ...           ...                  ...                  ...
         6        2.0000           -0.6325072             -17.2114
         7        2.0000           -0.6115154             -16.6402
         8        2.0000           -0.6083101             -16.5530
         9        2.0000           -0.5979726             -16.2717
        10        2.0000           -0.5893580             -16.0372
        11        2.0000           -0.5698266             -15.5058
        12        2.0000           -0.5542763             -15.0826
        13        2.0000           -0.5165569             -14.0562
        14        2.0000           -0.5054953             -13.7552
        15        2.0000           -0.5008032             -13.6275
        16        2.0000           -0.4285039             -11.6602
        17        2.0000           -0.4251498             -11.5689
        18        1.9154           -0.3556635              -9.6781 (HOMO)
        19        0.0846           -0.3497361              -9.5168 (LUMO)
        20                         -0.3330675              -9.0632
        21                         -0.2764232              -7.5219
        22                         -0.1805445              -4.9129
        23                          0.0233949               0.6366
        24                          0.0581948               1.5836
        25                          0.1777068               4.8356
        26                          0.1941236               5.2824
        27                          0.3260674               8.8727
        28                          0.4615116              12.5584
        29                          0.7234710              19.6866
        30                          0.8698261              23.6692
      -------------------------------------------------------------
                  HL-Gap            0.0059274 Eh            0.1613 eV
             Fermi-level           -0.3526998 Eh           -9.5974 eV

   #   Z        covCN         q      C6AA      α(0)
   1   7 N      1.789    -0.318    29.073     7.986
   2   6 C      2.814     0.143    24.870     8.171
   3   7 N      1.915     0.128    19.677     6.577
   4   7 N      0.984    -0.105    22.930     6.887
   5   8 O      0.924    -0.251    18.889     5.829
   6   7 N      1.845     0.203    18.471     6.369
   7   6 C      2.831    -0.036    28.891     8.808
   8   1 H      0.860     0.154     1.375     1.837
   9   1 H      0.926     0.082     1.960     2.189

 Mol. C6AA /au·bohr⁶  :       1305.300664
 Mol. C8AA /au·bohr⁸  :      29833.757305
 Mol. α(0) /au        :         54.653379


Wiberg/Mayer (AO) data.
largest (>0.10) Wiberg bond orders for each atom
          total WBO             WBO to atom ...
     1  N   3.079        C    2 1.519    H    8 0.945    N    4 0.155    N    6 0.138    O    5 0.131    N    3 0.125
     2  C   3.930        N    1 1.519    N    3 1.144    C    7 1.050    N    4 0.130
     3  N   3.694        N    4 2.254    C    2 1.144    N    1 0.125
     4  N   2.764        N    3 2.254    N    6 0.168    N    1 0.155    C    2 0.130
     5  O   2.027        N    6 1.512    C    7 0.263    N    1 0.131
     6  N   3.567        C    7 1.624    O    5 1.512    N    4 0.168    N    1 0.138
     7  C   3.946        N    6 1.624    C    2 1.050    H    9 0.905    O    5 0.263
     8  H   0.976        N    1 0.945
     9  H   0.983        C    7 0.905

molecular dipole:
                 x           y           z       tot (Debye)
 q only:       -0.753      -0.104       0.464
   full:       -0.955      -0.117       0.715       3.046
molecular quadrupole (traceless):
                xx          xy          yy          xz          yz          zz
 q only:       -6.530       1.838       3.608       2.440      -1.341       2.922
  q+dip:       -8.836       1.139       4.936       5.274      -2.126       3.900
   full:      -10.018       1.040       6.087       5.936      -1.895       3.932


           -------------------------------------------------
          | TOTAL ENERGY              -20.829745335701 Eh   |
          | GRADIENT NORM               0.050410727700 Eh/α |
          | HOMO-LUMO GAP               0.161293465504 eV   |
           -------------------------------------------------

------------------------------------------------------------------------
 * finished run on 2021/06/02 at 10:00:08.985     
------------------------------------------------------------------------
 total:
 * wall-time:     0 d,  0 h,  0 min,  0.016 sec
 *  cpu-time:     0 d,  0 h,  0 min,  0.016 sec
 * ratio c/w:     0.987 speedup
 SCF:
 * wall-time:     0 d,  0 h,  0 min,  0.009 sec
 *  cpu-time:     0 d,  0 h,  0 min,  0.009 sec
 * ratio c/w:     1.000 speedup

