      -----------------------------------------------------------      
     |                   =====================                   |     
     |                           x T B                           |     
     |                   =====================                   |     
     |                         S. Grimme                         |     
     |          Mulliken Center for Theoretical Chemistry        |     
     |                    University of Bonn                     |     
     |                 Version 6.1.4 (SAW190525)                 |     
      -----------------------------------------------------------      

   This program is distributed in the hope that it will be useful,
   but WITHOUT ANY WARRANTY; without even the implied warranty of
   MERCHANTABILITY or FITNESS FOR A PARTICULAR PURPOSE.
   
   FOR NON-COMMERCIAL, ACADEMIA USE ONLY.
   
   Cite this work as:
   S. Grimme, C. Bannwarth, P. Shushkov, J. Comput. Theory Chem., 2017,
   13, 1989-2009. DOI: 10.1021/acs.jctc.7b00118
   C. Bannwarth, S. Ehlert and S. Grimme., J. Comput. Theory Chem., 2019,
   just accepted. DOI: 10.1021/acs.jctc.8b01176
   
   for sTDA-xTB:
   S. Grimme and C. Bannwarth, J. Chem. Phys., 2016, 145, 054103.
   DOI: 10.1063/1.4959605
   
   in the mass-spec context:
   V. Asgeirsson, C. Bauer and S. Grimme, Chem. Sci., 2017, 8, 4879.
   DOI: 10.1039/c7sc00601b
   
   for metadynamics refer to:
   S. Grimme, J. Chem. Theory Comput. Article ASAP, 2019,
   DOI: 10.1021/acs.jctc.9b00143
   
   with help from (in alphabetical order)
   C. Bannwarth, F. Bohle, G. Brandenburg, E. Caldeweyher, M. Checinski,
   S. Dohm, S. Ehlert, S. Ehrlich, F. März, H. Neugebauer, J. Pisarek,
   P. Pracht, P. Shushkov, and S. Spicher.
   
 * started run on 2021/06/02 at 10:00:08.990     

           -------------------------------------------------
          |                Calculation Setup                |
           -------------------------------------------------

          program call               : /groups/kemi/koerstz/opt/xtb/6.1/bin/xtb path_point_1.xyz --gfn2 --acc 0.2 --chrg 0
          hostname                   : node305
          coordinate file            : path_point_1.xyz
          omp threads                :                     1
          number of atoms            :                     9
          number of electrons        :                    36
          charge                     :                     0
          spin                       :                   0.0
          first test random number   :      0.58332430272482


########################################################################
# WARNING! Please study the warnings concerning your input carefully
#  - XTBPATH is not set, using XTBHOME instead
########################################################################

           ------------------------------------------------- 
          |                 G F N 2 - x T B                 |
          | Geometry, Frequencies, Noncovalent interactions |
          |            JCTC 2018 parametrisation            |
           ------------------------------------------------- 
             k(s)              :                1.8500
             k(p)              :                2.2300
             k(d)              :                2.2300
             k(f)              :                2.0000
             kEN (H0ij)        :               -2.0000
             D4 a1             :                0.5200
             D4 a2             :                5.0000
             D4 s6             :                1.0000
             D4 s8             :                2.7000
             D4 s9             :                5.0000
             alphaj            :                2.0000

  Z AO/shell   Hii/eV     exponent
  1     Wed Apr 25 08:07:45 CEST 2018   EN: 2.200 GM2: 0.406  GM3: 0.0800  RAES: 1.40
     1s    -10.707211    1.230000
  6     Wed Apr 25 08:07:45 CEST 2018   EN: 2.550 GM2: 0.538  GM3: 0.1500  RAES: 3.00
     2s    -13.970922    2.096432
     2p    -10.063292    1.800000
  7     Wed Apr 25 08:07:45 CEST 2018   EN: 3.040 GM2: 0.461  GM3:-0.0640  RAES: 1.90
     2s    -16.686243    2.339881
     2p    -12.523956    2.014332
  8     Wed Apr 25 08:07:45 CEST 2018   EN: 3.440 GM2: 0.452  GM3:-0.0517  RAES: 1.80
     2s    -20.229985    2.439742
     2p    -15.503117    2.137023


            Z     q(EN)     CN     RAES       Cart. coordinates
     1  N   5.0   -0.42    2.01    1.90    -0.96192    -0.29939    -2.43250
     2  C   4.0    0.32    3.01    3.02    -0.83990    -1.62614    -0.39342
     3  N   5.0   -0.15    2.02    1.90    -2.89936    -2.06215     1.01922
     4  N   5.0   -0.15    1.00    1.90    -4.96392    -2.65534     1.33861
     5  O   6.0   -0.10    1.00    1.80     5.79899    -2.66373    -0.53477
     6  N   5.0   -0.14    2.01    1.90     3.50657    -2.57962    -0.55631
     7  C   4.0    0.14    3.01    3.02     1.55200    -2.30184     0.80103
     8  H   1.0    0.33    1.00    1.43    -2.68516     0.41913    -2.90700
     9  H   1.0    0.18    0.99    1.43     1.44751    -2.88313     2.76246

           ------------------------------------------------- 
          |        Self-Consistent Charge Iterations        |
           ------------------------------------------------- 
q/qsh data taken from xtbrestart
CAMM data taken from xtbrestart

          ...................................................
          :                      SETUP                      :
          :.................................................:
          :  # basis functions                  30          :
          :  # atomic orbitals                  30          :
          :  # shells                           16          :
          :  # electrons                        36          :
          :  max. iterations                   250          :
          :  Hamiltonian                  GFN2-xTB          :
          :  restarted?                       true          :
          :  GBSA solvation                  false          :
          :  PC potential                    false          :
          :  electronic temp.          300.0000000     K    :
          :  accuracy                    0.2000000          :
          :  -> integral cutoff          0.3198970E+02      :
          :  -> integral neglect         0.2000000E-08      :
          :  -> SCF convergence          0.2000000E-06 Eh   :
          :  -> wf. convergence          0.2000000E-04 e    :
          :  Broyden damping             0.4000000          :
          ...................................................

 iter      E             dE          RMSdq      gap      omega  full diag
   1    -21.0170697 -0.210171E+02  0.197E+00    0.26       0.0  T
   2    -20.6035038  0.413566E+00  0.629E+00    0.38       1.0  T
   3    -20.8832177 -0.279714E+00  0.385E+00    0.43       1.0  T
   4    -21.0596109 -0.176393E+00  0.834E-01    0.23       1.0  T
   5    -21.0672041 -0.759323E-02  0.177E-01    0.22       1.0  T
   6    -21.0636231  0.358098E-02  0.529E-01    0.22       1.0  T
   7    -21.0662426 -0.261944E-02  0.284E-01    0.22       1.0  T
   8    -21.0672325 -0.989947E-03  0.679E-02    0.22       1.0  T
   9    -21.0672907 -0.581619E-04  0.917E-03    0.22       3.6  T
  10    -21.0672900  0.677735E-06  0.108E-02    0.22       3.1  T
  11    -21.0672909 -0.958761E-06  0.639E-03    0.22       5.2  T
  12    -21.0672915 -0.524157E-06  0.112E-03    0.22      29.7  T
  13    -21.0672915 -0.899371E-08  0.708E-04    0.22      47.1  T
  14    -21.0672915 -0.525233E-08  0.296E-04    0.22     112.8  T
  15    -21.0672915 -0.106635E-08  0.741E-05    0.22     449.7  T
  16    -21.0672915 -0.176001E-10  0.603E-05    0.22     552.8  T

   *** convergence criteria satisfied after 16 iterations ***

         #    Occupation            Energy/Eh            Energy/eV
      -------------------------------------------------------------
         1        2.0000           -0.7482203             -20.3601
       ...           ...                  ...                  ...
        12        2.0000           -0.5537224             -15.0676
        13        2.0000           -0.5183463             -14.1049
        14        2.0000           -0.5058749             -13.7656
        15        2.0000           -0.5019189             -13.6579
        16        2.0000           -0.4312108             -11.7338
        17        2.0000           -0.4298068             -11.6956
        18        1.9708           -0.3641271              -9.9084 (HOMO)
        19        0.0292           -0.3561258              -9.6907 (LUMO)
        20                         -0.3406623              -9.2699
        21                         -0.2875031              -7.8234
        22                         -0.1933814              -5.2622
        23                          0.0194777               0.5300
       ...                                ...                  ...
        30                          0.7861985              21.3935
      -------------------------------------------------------------
                  HL-Gap            0.0080013 Eh            0.2177 eV
             Fermi-level           -0.3601264 Eh           -9.7995 eV

 SCC (total)                   0 d,  0 h,  0 min,  0.008 sec
 SCC setup                      ...        0 min,  0.000 sec (  1.728%)
 Dispersion                     ...        0 min,  0.000 sec (  0.746%)
 integral evaluation            ...        0 min,  0.001 sec ( 13.121%)
 zeroth order Hamiltonian       ...        0 min,  0.000 sec (  0.380%)
 iterations                     ...        0 min,  0.005 sec ( 57.828%)
 molecular gradient             ...        0 min,  0.002 sec ( 23.663%)
 printout                       ...        0 min,  0.000 sec (  2.061%)

         :::::::::::::::::::::::::::::::::::::::::::::::::::::
         ::                     SUMMARY                     ::
         :::::::::::::::::::::::::::::::::::::::::::::::::::::
         :: total energy              -20.830566701085 Eh   ::
         :: gradient norm               0.030621888895 Eh/α ::
         :: HOMO-LUMO gap               0.217725155664 eV   ::
         ::.................................................::
         :: SCC energy                -21.067291479924 Eh   ::
         :: -> isotropic ES             0.025931164334 Eh   ::
         :: -> anisotropic ES           0.004145637084 Eh   ::
         :: -> anisotropic XC           0.024581662697 Eh   ::
         :: -> dispersion              -0.005501711709 Eh   ::
         :: repulsion energy            0.236723819091 Eh   ::
         :: add. restraining            0.000000000000 Eh   ::
         :::::::::::::::::::::::::::::::::::::::::::::::::::::

           -------------------------------------------------
          |                Property Printout                |
           -------------------------------------------------

    * Orbital Energies and Occupations

         #    Occupation            Energy/Eh            Energy/eV
      -------------------------------------------------------------
         1        2.0000           -0.7482203             -20.3601
       ...           ...                  ...                  ...
         6        2.0000           -0.6319898             -17.1973
         7        2.0000           -0.6087083             -16.5638
         8        2.0000           -0.6055825             -16.4787
         9        2.0000           -0.5929179             -16.1341
        10        2.0000           -0.5864770             -15.9589
        11        2.0000           -0.5695341             -15.4978
        12        2.0000           -0.5537224             -15.0676
        13        2.0000           -0.5183463             -14.1049
        14        2.0000           -0.5058749             -13.7656
        15        2.0000           -0.5019189             -13.6579
        16        2.0000           -0.4312108             -11.7338
        17        2.0000           -0.4298068             -11.6956
        18        1.9708           -0.3641271              -9.9084 (HOMO)
        19        0.0292           -0.3561258              -9.6907 (LUMO)
        20                         -0.3406623              -9.2699
        21                         -0.2875031              -7.8234
        22                         -0.1933814              -5.2622
        23                          0.0194777               0.5300
        24                          0.0550555               1.4981
        25                          0.1667741               4.5382
        26                          0.1763772               4.7995
        27                          0.3141811               8.5493
        28                          0.4499591              12.2440
        29                          0.6472367              17.6122
        30                          0.7861985              21.3935
      -------------------------------------------------------------
                  HL-Gap            0.0080013 Eh            0.2177 eV
             Fermi-level           -0.3601264 Eh           -9.7995 eV

   #   Z        covCN         q      C6AA      α(0)
   1   7 N      1.787    -0.309    28.823     7.952
   2   6 C      2.815     0.149    24.765     8.154
   3   7 N      1.914     0.116    19.870     6.609
   4   7 N      0.985    -0.103    22.880     6.880
   5   8 O      0.924    -0.259    19.029     5.850
   6   7 N      1.845     0.190    18.679     6.405
   7   6 C      2.831    -0.028    28.685     8.776
   8   1 H      0.860     0.158     1.346     1.817
   9   1 H      0.925     0.085     1.930     2.172

 Mol. C6AA /au·bohr⁶  :       1303.886319
 Mol. C8AA /au·bohr⁸  :      29803.661339
 Mol. α(0) /au        :         54.615287


Wiberg/Mayer (AO) data.
largest (>0.10) Wiberg bond orders for each atom
          total WBO             WBO to atom ...
     1  N   3.130        C    2 1.543    H    8 0.943    N    4 0.162    N    6 0.144    O    5 0.140    N    3 0.128
     2  C   3.940        N    1 1.543    N    3 1.131    C    7 1.053    N    4 0.121
     3  N   3.690        N    4 2.244    C    2 1.131    N    1 0.128
     4  N   2.783        N    3 2.244    N    6 0.190    N    1 0.162    C    2 0.121
     5  O   2.031        N    6 1.505    C    7 0.254    N    1 0.140
     6  N   3.594        C    7 1.620    O    5 1.505    N    4 0.190    N    1 0.144
     7  C   3.948        N    6 1.620    C    2 1.053    H    9 0.907    O    5 0.254
     8  H   0.975        N    1 0.943
     9  H   0.989        C    7 0.907

molecular dipole:
                 x           y           z       tot (Debye)
 q only:       -0.838      -0.031       0.459
   full:       -1.037      -0.026       0.720       3.210
molecular quadrupole (traceless):
                xx          xy          yy          xz          yz          zz
 q only:       -6.968       1.964       3.531       2.457      -1.386       3.438
  q+dip:       -9.206       1.101       4.759       5.160      -2.227       4.446
   full:      -10.336       0.945       5.919       5.749      -2.042       4.417


           -------------------------------------------------
          | TOTAL ENERGY              -20.830566701085 Eh   |
          | GRADIENT NORM               0.030621888895 Eh/α |
          | HOMO-LUMO GAP               0.217725155664 eV   |
           -------------------------------------------------

------------------------------------------------------------------------
 * finished run on 2021/06/02 at 10:00:09.006     
------------------------------------------------------------------------
 total:
 * wall-time:     0 d,  0 h,  0 min,  0.016 sec
 *  cpu-time:     0 d,  0 h,  0 min,  0.016 sec
 * ratio c/w:     0.986 speedup
 SCF:
 * wall-time:     0 d,  0 h,  0 min,  0.008 sec
 *  cpu-time:     0 d,  0 h,  0 min,  0.008 sec
 * ratio c/w:     1.000 speedup

