      -----------------------------------------------------------      
     |                   =====================                   |     
     |                           x T B                           |     
     |                   =====================                   |     
     |                         S. Grimme                         |     
     |          Mulliken Center for Theoretical Chemistry        |     
     |                    University of Bonn                     |     
     |                 Version 6.1.4 (SAW190525)                 |     
      -----------------------------------------------------------      

   This program is distributed in the hope that it will be useful,
   but WITHOUT ANY WARRANTY; without even the implied warranty of
   MERCHANTABILITY or FITNESS FOR A PARTICULAR PURPOSE.
   
   FOR NON-COMMERCIAL, ACADEMIA USE ONLY.
   
   Cite this work as:
   S. Grimme, C. Bannwarth, P. Shushkov, J. Comput. Theory Chem., 2017,
   13, 1989-2009. DOI: 10.1021/acs.jctc.7b00118
   C. Bannwarth, S. Ehlert and S. Grimme., J. Comput. Theory Chem., 2019,
   just accepted. DOI: 10.1021/acs.jctc.8b01176
   
   for sTDA-xTB:
   S. Grimme and C. Bannwarth, J. Chem. Phys., 2016, 145, 054103.
   DOI: 10.1063/1.4959605
   
   in the mass-spec context:
   V. Asgeirsson, C. Bauer and S. Grimme, Chem. Sci., 2017, 8, 4879.
   DOI: 10.1039/c7sc00601b
   
   for metadynamics refer to:
   S. Grimme, J. Chem. Theory Comput. Article ASAP, 2019,
   DOI: 10.1021/acs.jctc.9b00143
   
   with help from (in alphabetical order)
   C. Bannwarth, F. Bohle, G. Brandenburg, E. Caldeweyher, M. Checinski,
   S. Dohm, S. Ehlert, S. Ehrlich, F. März, H. Neugebauer, J. Pisarek,
   P. Pracht, P. Shushkov, and S. Spicher.
   
 * started run on 2021/06/02 at 10:00:08.946     

           -------------------------------------------------
          |                Calculation Setup                |
           -------------------------------------------------

          program call               : /groups/kemi/koerstz/opt/xtb/6.1/bin/xtb path_point_9.xyz --gfn2 --acc 0.2 --chrg 0
          hostname                   : node305
          coordinate file            : path_point_9.xyz
          omp threads                :                     1
          number of atoms            :                     9
          number of electrons        :                    36
          charge                     :                     0
          spin                       :                   0.0
          first test random number   :      0.56867525136908


########################################################################
# WARNING! Please study the warnings concerning your input carefully
#  - XTBPATH is not set, using XTBHOME instead
########################################################################

           ------------------------------------------------- 
          |                 G F N 2 - x T B                 |
          | Geometry, Frequencies, Noncovalent interactions |
          |            JCTC 2018 parametrisation            |
           ------------------------------------------------- 
             k(s)              :                1.8500
             k(p)              :                2.2300
             k(d)              :                2.2300
             k(f)              :                2.0000
             kEN (H0ij)        :               -2.0000
             D4 a1             :                0.5200
             D4 a2             :                5.0000
             D4 s6             :                1.0000
             D4 s8             :                2.7000
             D4 s9             :                5.0000
             alphaj            :                2.0000

  Z AO/shell   Hii/eV     exponent
  1     Wed Apr 25 08:07:45 CEST 2018   EN: 2.200 GM2: 0.406  GM3: 0.0800  RAES: 1.40
     1s    -10.707211    1.230000
  6     Wed Apr 25 08:07:45 CEST 2018   EN: 2.550 GM2: 0.538  GM3: 0.1500  RAES: 3.00
     2s    -13.970922    2.096432
     2p    -10.063292    1.800000
  7     Wed Apr 25 08:07:45 CEST 2018   EN: 3.040 GM2: 0.461  GM3:-0.0640  RAES: 1.90
     2s    -16.686243    2.339881
     2p    -12.523956    2.014332
  8     Wed Apr 25 08:07:45 CEST 2018   EN: 3.440 GM2: 0.452  GM3:-0.0517  RAES: 1.80
     2s    -20.229985    2.439742
     2p    -15.503117    2.137023


            Z     q(EN)     CN     RAES       Cart. coordinates
     1  N   5.0   -0.42    2.01    1.90    -0.92745    -0.33654    -2.44223
     2  C   4.0    0.31    3.01    3.02    -0.84560    -1.69085    -0.41700
     3  N   5.0   -0.15    2.02    1.90    -2.92306    -2.12515     0.96069
     4  N   5.0   -0.15    1.00    1.90    -4.97526    -2.50050     1.43213
     5  O   6.0   -0.10    1.00    1.80     5.79439    -2.55171    -0.63750
     6  N   5.0   -0.15    2.01    1.90     3.53923    -2.52240    -0.44351
     7  C   4.0    0.14    3.01    3.02     1.53726    -2.37810     0.81055
     8  H   1.0    0.33    1.00    1.43    -2.64353     0.39665    -2.92788
     9  H   1.0    0.18    1.00    1.43     1.39881    -2.94359     2.76207

           ------------------------------------------------- 
          |        Self-Consistent Charge Iterations        |
           ------------------------------------------------- 
q/qsh data taken from xtbrestart
CAMM data taken from xtbrestart

          ...................................................
          :                      SETUP                      :
          :.................................................:
          :  # basis functions                  30          :
          :  # atomic orbitals                  30          :
          :  # shells                           16          :
          :  # electrons                        36          :
          :  max. iterations                   250          :
          :  Hamiltonian                  GFN2-xTB          :
          :  restarted?                       true          :
          :  GBSA solvation                  false          :
          :  PC potential                    false          :
          :  electronic temp.          300.0000000     K    :
          :  accuracy                    0.2000000          :
          :  -> integral cutoff          0.3198970E+02      :
          :  -> integral neglect         0.2000000E-08      :
          :  -> SCF convergence          0.2000000E-06 Eh   :
          :  -> wf. convergence          0.2000000E-04 e    :
          :  Broyden damping             0.4000000          :
          ...................................................

 iter      E             dE          RMSdq      gap      omega  full diag
   1    -20.9936285 -0.209936E+02  0.264E+00    0.23       0.0  T
   2    -20.7315070  0.262122E+00  0.592E+00    1.87       1.0  T
   3    -20.8823478 -0.150841E+00  0.404E+00    0.74       1.0  T
   4    -21.0308881 -0.148540E+00  0.201E+00    0.23       1.0  T
   5    -21.0690329 -0.381447E-01  0.978E-01    0.19       1.0  T
   6    -21.0574316  0.116012E-01  0.138E+00    0.20       1.0  T
   7    -21.0582281 -0.796506E-03  0.134E+00    0.20       1.0  T
   8    -21.0811049 -0.228767E-01  0.162E-01    0.18       1.0  T
   9    -21.0812147 -0.109802E-03  0.132E-01    0.18       1.0  T
  10    -21.0813588 -0.144167E-03  0.794E-02    0.18       1.0  T
  11    -21.0813389  0.198868E-04  0.891E-02    0.18       1.0  T
  12    -21.0814375 -0.985560E-04  0.151E-02    0.18       2.2  T
  13    -21.0814398 -0.226618E-05  0.701E-03    0.18       4.8  T
  14    -21.0814402 -0.394661E-06  0.432E-03    0.18       7.7  T
  15    -21.0814404 -0.237461E-06  0.504E-04    0.18      66.1  T
  16    -21.0814404  0.271712E-08  0.672E-04    0.18      49.6  T
  17    -21.0814404 -0.574851E-08  0.746E-05    0.18     447.1  T
  18    -21.0814404 -0.717506E-10  0.251E-06    0.18   13274.3  T

   *** convergence criteria satisfied after 18 iterations ***

         #    Occupation            Energy/Eh            Energy/eV
      -------------------------------------------------------------
         1        2.0000           -0.7538819             -20.5142
       ...           ...                  ...                  ...
        12        2.0000           -0.5542018             -15.0806
        13        2.0000           -0.5151537             -14.0180
        14        2.0000           -0.5054301             -13.7535
        15        2.0000           -0.4994370             -13.5904
        16        2.0000           -0.4304978             -11.7144
        17        2.0000           -0.4242317             -11.5439
        18        1.9387           -0.3545728              -9.6484 (HOMO)
        19        0.0613           -0.3480108              -9.4699 (LUMO)
        20                         -0.3307721              -9.0008
        21                         -0.2776120              -7.5542
        22                         -0.1826713              -4.9707
        23                          0.0169380               0.4609
       ...                                ...                  ...
        30                          0.8740201              23.7833
      -------------------------------------------------------------
                  HL-Gap            0.0065620 Eh            0.1786 eV
             Fermi-level           -0.3512918 Eh           -9.5591 eV

 SCC (total)                   0 d,  0 h,  0 min,  0.009 sec
 SCC setup                      ...        0 min,  0.000 sec (  1.515%)
 Dispersion                     ...        0 min,  0.000 sec (  0.663%)
 integral evaluation            ...        0 min,  0.001 sec ( 12.526%)
 zeroth order Hamiltonian       ...        0 min,  0.000 sec (  0.361%)
 iterations                     ...        0 min,  0.005 sec ( 59.814%)
 molecular gradient             ...        0 min,  0.002 sec ( 22.624%)
 printout                       ...        0 min,  0.000 sec (  2.095%)

         :::::::::::::::::::::::::::::::::::::::::::::::::::::
         ::                     SUMMARY                     ::
         :::::::::::::::::::::::::::::::::::::::::::::::::::::
         :: total energy              -20.828288650860 Eh   ::
         :: gradient norm               0.048385274693 Eh/α ::
         :: HOMO-LUMO gap               0.178559995924 eV   ::
         ::.................................................::
         :: SCC energy                -21.081440403326 Eh   ::
         :: -> isotropic ES             0.025558794256 Eh   ::
         :: -> anisotropic ES           0.004574981522 Eh   ::
         :: -> anisotropic XC           0.024638703838 Eh   ::
         :: -> dispersion              -0.005512623444 Eh   ::
         :: repulsion energy            0.253150989632 Eh   ::
         :: add. restraining            0.000000000000 Eh   ::
         :::::::::::::::::::::::::::::::::::::::::::::::::::::

           -------------------------------------------------
          |                Property Printout                |
           -------------------------------------------------

    * Orbital Energies and Occupations

         #    Occupation            Energy/Eh            Energy/eV
      -------------------------------------------------------------
         1        2.0000           -0.7538819             -20.5142
       ...           ...                  ...                  ...
         6        2.0000           -0.6324739             -17.2105
         7        2.0000           -0.6115537             -16.6412
         8        2.0000           -0.6069339             -16.5155
         9        2.0000           -0.5974443             -16.2573
        10        2.0000           -0.5892688             -16.0348
        11        2.0000           -0.5709056             -15.5351
        12        2.0000           -0.5542018             -15.0806
        13        2.0000           -0.5151537             -14.0180
        14        2.0000           -0.5054301             -13.7535
        15        2.0000           -0.4994370             -13.5904
        16        2.0000           -0.4304978             -11.7144
        17        2.0000           -0.4242317             -11.5439
        18        1.9387           -0.3545728              -9.6484 (HOMO)
        19        0.0613           -0.3480108              -9.4699 (LUMO)
        20                         -0.3307721              -9.0008
        21                         -0.2776120              -7.5542
        22                         -0.1826713              -4.9707
        23                          0.0169380               0.4609
        24                          0.0580923               1.5808
        25                          0.1652598               4.4969
        26                          0.1912138               5.2032
        27                          0.3179946               8.6531
        28                          0.4573191              12.4443
        29                          0.7429245              20.2160
        30                          0.8740201              23.7833
      -------------------------------------------------------------
                  HL-Gap            0.0065620 Eh            0.1786 eV
             Fermi-level           -0.3512918 Eh           -9.5591 eV

   #   Z        covCN         q      C6AA      α(0)
   1   7 N      1.787    -0.320    29.122     7.993
   2   6 C      2.814     0.141    24.928     8.180
   3   7 N      1.914     0.126    19.714     6.583
   4   7 N      0.985    -0.108    22.999     6.897
   5   8 O      0.924    -0.251    18.885     5.828
   6   7 N      1.844     0.207    18.413     6.359
   7   6 C      2.831    -0.033    28.813     8.796
   8   1 H      0.860     0.153     1.380     1.840
   9   1 H      0.926     0.086     1.919     2.167

 Mol. C6AA /au·bohr⁶  :       1304.935226
 Mol. C8AA /au·bohr⁸  :      29830.442148
 Mol. α(0) /au        :         54.643862


Wiberg/Mayer (AO) data.
largest (>0.10) Wiberg bond orders for each atom
          total WBO             WBO to atom ...
     1  N   3.087        C    2 1.520    H    8 0.945    N    4 0.151    N    6 0.146    O    5 0.136    N    3 0.125
     2  C   3.929        N    1 1.520    N    3 1.145    C    7 1.035    N    4 0.137
     3  N   3.698        N    4 2.253    C    2 1.145    N    1 0.125
     4  N   2.773        N    3 2.253    N    6 0.176    N    1 0.151    C    2 0.137
     5  O   2.037        N    6 1.509    C    7 0.267    N    1 0.136
     6  N   3.607        C    7 1.646    O    5 1.509    N    4 0.176    N    1 0.146
     7  C   3.948        N    6 1.646    C    2 1.035    H    9 0.904    O    5 0.267
     8  H   0.976        N    1 0.945
     9  H   0.985        C    7 0.904

molecular dipole:
                 x           y           z       tot (Debye)
 q only:       -0.706      -0.122       0.519
   full:       -0.901      -0.126       0.767       3.023
molecular quadrupole (traceless):
                xx          xy          yy          xz          yz          zz
 q only:       -6.652       1.498       3.796       2.731      -1.532       2.856
  q+dip:       -8.873       0.706       5.103       5.561      -2.329       3.770
   full:      -10.072       0.592       6.239       6.258      -2.125       3.832


           -------------------------------------------------
          | TOTAL ENERGY              -20.828288650860 Eh   |
          | GRADIENT NORM               0.048385274693 Eh/α |
          | HOMO-LUMO GAP               0.178559995924 eV   |
           -------------------------------------------------

------------------------------------------------------------------------
 * finished run on 2021/06/02 at 10:00:08.963     
------------------------------------------------------------------------
 total:
 * wall-time:     0 d,  0 h,  0 min,  0.016 sec
 *  cpu-time:     0 d,  0 h,  0 min,  0.016 sec
 * ratio c/w:     0.987 speedup
 SCF:
 * wall-time:     0 d,  0 h,  0 min,  0.009 sec
 *  cpu-time:     0 d,  0 h,  0 min,  0.009 sec
 * ratio c/w:     1.000 speedup

