      -----------------------------------------------------------      
     |                   =====================                   |     
     |                           x T B                           |     
     |                   =====================                   |     
     |                         S. Grimme                         |     
     |          Mulliken Center for Theoretical Chemistry        |     
     |                    University of Bonn                     |     
     |                 Version 6.1.4 (SAW190525)                 |     
      -----------------------------------------------------------      

   This program is distributed in the hope that it will be useful,
   but WITHOUT ANY WARRANTY; without even the implied warranty of
   MERCHANTABILITY or FITNESS FOR A PARTICULAR PURPOSE.
   
   FOR NON-COMMERCIAL, ACADEMIA USE ONLY.
   
   Cite this work as:
   S. Grimme, C. Bannwarth, P. Shushkov, J. Comput. Theory Chem., 2017,
   13, 1989-2009. DOI: 10.1021/acs.jctc.7b00118
   C. Bannwarth, S. Ehlert and S. Grimme., J. Comput. Theory Chem., 2019,
   just accepted. DOI: 10.1021/acs.jctc.8b01176
   
   for sTDA-xTB:
   S. Grimme and C. Bannwarth, J. Chem. Phys., 2016, 145, 054103.
   DOI: 10.1063/1.4959605
   
   in the mass-spec context:
   V. Asgeirsson, C. Bauer and S. Grimme, Chem. Sci., 2017, 8, 4879.
   DOI: 10.1039/c7sc00601b
   
   for metadynamics refer to:
   S. Grimme, J. Chem. Theory Comput. Article ASAP, 2019,
   DOI: 10.1021/acs.jctc.9b00143
   
   with help from (in alphabetical order)
   C. Bannwarth, F. Bohle, G. Brandenburg, E. Caldeweyher, M. Checinski,
   S. Dohm, S. Ehlert, S. Ehrlich, F. März, H. Neugebauer, J. Pisarek,
   P. Pracht, P. Shushkov, and S. Spicher.
   
 * started run on 2021/06/02 at 10:00:08.607     

           -------------------------------------------------
          |                Calculation Setup                |
           -------------------------------------------------

          program call               : /groups/kemi/koerstz/opt/xtb/6.1/bin/xtb path_point_2.xyz --gfn2 --acc 0.2 --chrg 0
          hostname                   : node305
          coordinate file            : path_point_2.xyz
          omp threads                :                     1
          number of atoms            :                     9
          number of electrons        :                    36
          charge                     :                     0
          spin                       :                   0.0
          first test random number   :      0.73812635417131


########################################################################
# WARNING! Please study the warnings concerning your input carefully
#  - XTBPATH is not set, using XTBHOME instead
########################################################################

           ------------------------------------------------- 
          |                 G F N 2 - x T B                 |
          | Geometry, Frequencies, Noncovalent interactions |
          |            JCTC 2018 parametrisation            |
           ------------------------------------------------- 
             k(s)              :                1.8500
             k(p)              :                2.2300
             k(d)              :                2.2300
             k(f)              :                2.0000
             kEN (H0ij)        :               -2.0000
             D4 a1             :                0.5200
             D4 a2             :                5.0000
             D4 s6             :                1.0000
             D4 s8             :                2.7000
             D4 s9             :                5.0000
             alphaj            :                2.0000

  Z AO/shell   Hii/eV     exponent
  1     Wed Apr 25 08:07:45 CEST 2018   EN: 2.200 GM2: 0.406  GM3: 0.0800  RAES: 1.40
     1s    -10.707211    1.230000
  6     Wed Apr 25 08:07:45 CEST 2018   EN: 2.550 GM2: 0.538  GM3: 0.1500  RAES: 3.00
     2s    -13.970922    2.096432
     2p    -10.063292    1.800000
  7     Wed Apr 25 08:07:45 CEST 2018   EN: 3.040 GM2: 0.461  GM3:-0.0640  RAES: 1.90
     2s    -16.686243    2.339881
     2p    -12.523956    2.014332
  8     Wed Apr 25 08:07:45 CEST 2018   EN: 3.440 GM2: 0.452  GM3:-0.0517  RAES: 1.80
     2s    -20.229985    2.439742
     2p    -15.503117    2.137023


            Z     q(EN)     CN     RAES       Cart. coordinates
     1  N   5.0   -0.42    2.01    1.90    -0.95761    -0.30403    -2.43372
     2  C   4.0    0.32    3.01    3.02    -0.84061    -1.63423    -0.39636
     3  N   5.0   -0.15    2.02    1.90    -2.90233    -2.07003     1.01190
     4  N   5.0   -0.15    1.00    1.90    -4.96534    -2.63598     1.35030
     5  O   6.0   -0.10    1.00    1.80     5.79841    -2.64972    -0.54761
     6  N   5.0   -0.14    2.01    1.90     3.51065    -2.57246    -0.54221
     7  C   4.0    0.14    3.01    3.02     1.55015    -2.31138     0.80222
     8  H   1.0    0.33    1.00    1.43    -2.67996     0.41632    -2.90961
     9  H   1.0    0.18    0.99    1.43     1.44142    -2.89069     2.76241

           ------------------------------------------------- 
          |        Self-Consistent Charge Iterations        |
           ------------------------------------------------- 
q/qsh data taken from xtbrestart
CAMM data taken from xtbrestart

          ...................................................
          :                      SETUP                      :
          :.................................................:
          :  # basis functions                  30          :
          :  # atomic orbitals                  30          :
          :  # shells                           16          :
          :  # electrons                        36          :
          :  max. iterations                   250          :
          :  Hamiltonian                  GFN2-xTB          :
          :  restarted?                       true          :
          :  GBSA solvation                  false          :
          :  PC potential                    false          :
          :  electronic temp.          300.0000000     K    :
          :  accuracy                    0.2000000          :
          :  -> integral cutoff          0.3198970E+02      :
          :  -> integral neglect         0.2000000E-08      :
          :  -> SCF convergence          0.2000000E-06 Eh   :
          :  -> wf. convergence          0.2000000E-04 e    :
          :  Broyden damping             0.4000000          :
          ...................................................

 iter      E             dE          RMSdq      gap      omega  full diag
   1    -20.8640968 -0.208641E+02  0.410E+00    0.41       0.0  T
   2    -20.6315859  0.232511E+00  0.677E+00    1.43       1.0  T
   3    -20.8588876 -0.227302E+00  0.418E+00    1.18       1.0  T
   4    -21.0194252 -0.160538E+00  0.201E+00    0.29       1.0  T
   5    -21.0539652 -0.345400E-01  0.116E+00    0.23       1.0  T
   6    -20.9638719  0.900933E-01  0.286E+00    0.37       1.0  T
   7    -21.0355050 -0.716331E-01  0.163E+00    0.26       1.0  T
   8    -21.0671967 -0.316917E-01  0.461E-01    0.22       1.0  T
   9    -21.0629987  0.419806E-02  0.724E-01    0.22       1.0  T
  10    -21.0690298 -0.603111E-02  0.255E-01    0.21       1.0  T
  11    -21.0689627  0.671414E-04  0.261E-01    0.21       1.0  T
  12    -21.0696963 -0.733653E-03  0.111E-01    0.22       1.0  T
  13    -21.0698505 -0.154198E-03  0.195E-02    0.21       1.7  T
  14    -21.0698373  0.132097E-04  0.372E-02    0.21       1.0  T
  15    -21.0698554 -0.181331E-04  0.115E-03    0.21      28.9  T
  16    -21.0698552  0.217978E-06  0.420E-03    0.21       7.9  T
  17    -21.0698554 -0.226937E-06  0.572E-04    0.21      58.3  T
  18    -21.0698554 -0.365321E-08  0.214E-04    0.21     155.9  T
  19    -21.0698554 -0.585825E-09  0.301E-05    0.21    1109.1  T
  20    -21.0698554  0.220730E-10  0.501E-05    0.21     664.7  T

   *** convergence criteria satisfied after 20 iterations ***

         #    Occupation            Energy/Eh            Energy/eV
      -------------------------------------------------------------
         1        2.0000           -0.7490522             -20.3827
       ...           ...                  ...                  ...
        12        2.0000           -0.5538078             -15.0699
        13        2.0000           -0.5179172             -14.0932
        14        2.0000           -0.5058288             -13.7643
        15        2.0000           -0.5016354             -13.6502
        16        2.0000           -0.4307215             -11.7205
        17        2.0000           -0.4293077             -11.6821
        18        1.9690           -0.3627363              -9.8706 (HOMO)
        19        0.0310           -0.3548513              -9.6560 (LUMO)
        20                         -0.3391595              -9.2290
        21                         -0.2859954              -7.7823
        22                         -0.1917624              -5.2181
        23                          0.0194360               0.5289
       ...                                ...                  ...
        30                          0.7998047              21.7638
      -------------------------------------------------------------
                  HL-Gap            0.0078850 Eh            0.2146 eV
             Fermi-level           -0.3587938 Eh           -9.7633 eV

 SCC (total)                   0 d,  0 h,  0 min,  0.009 sec
 SCC setup                      ...        0 min,  0.000 sec (  1.376%)
 Dispersion                     ...        0 min,  0.000 sec (  0.617%)
 integral evaluation            ...        0 min,  0.001 sec ( 11.754%)
 zeroth order Hamiltonian       ...        0 min,  0.000 sec (  0.370%)
 iterations                     ...        0 min,  0.006 sec ( 62.152%)
 molecular gradient             ...        0 min,  0.002 sec ( 21.541%)
 printout                       ...        0 min,  0.000 sec (  1.786%)

         :::::::::::::::::::::::::::::::::::::::::::::::::::::
         ::                     SUMMARY                     ::
         :::::::::::::::::::::::::::::::::::::::::::::::::::::
         :: total energy              -20.830525253920 Eh   ::
         :: gradient norm               0.024344036239 Eh/α ::
         :: HOMO-LUMO gap               0.214562241667 eV   ::
         ::.................................................::
         :: SCC energy                -21.069855446417 Eh   ::
         :: -> isotropic ES             0.025873180117 Eh   ::
         :: -> anisotropic ES           0.004216138093 Eh   ::
         :: -> anisotropic XC           0.024575013878 Eh   ::
         :: -> dispersion              -0.005503481133 Eh   ::
         :: repulsion energy            0.239329259762 Eh   ::
         :: add. restraining            0.000000000000 Eh   ::
         :::::::::::::::::::::::::::::::::::::::::::::::::::::

           -------------------------------------------------
          |                Property Printout                |
           -------------------------------------------------

    * Orbital Energies and Occupations

         #    Occupation            Energy/Eh            Energy/eV
      -------------------------------------------------------------
         1        2.0000           -0.7490522             -20.3827
       ...           ...                  ...                  ...
         6        2.0000           -0.6320636             -17.1993
         7        2.0000           -0.6090644             -16.5735
         8        2.0000           -0.6059412             -16.4885
         9        2.0000           -0.5935740             -16.1520
        10        2.0000           -0.5869819             -15.9726
        11        2.0000           -0.5696989             -15.5023
        12        2.0000           -0.5538078             -15.0699
        13        2.0000           -0.5179172             -14.0932
        14        2.0000           -0.5058288             -13.7643
        15        2.0000           -0.5016354             -13.6502
        16        2.0000           -0.4307215             -11.7205
        17        2.0000           -0.4293077             -11.6821
        18        1.9690           -0.3627363              -9.8706 (HOMO)
        19        0.0310           -0.3548513              -9.6560 (LUMO)
        20                         -0.3391595              -9.2290
        21                         -0.2859954              -7.7823
        22                         -0.1917624              -5.2181
        23                          0.0194360               0.5289
        24                          0.0555949               1.5128
        25                          0.1672990               4.5524
        26                          0.1785977               4.8599
        27                          0.3150434               8.5728
        28                          0.4514300              12.2840
        29                          0.6608560              17.9828
        30                          0.7998047              21.7638
      -------------------------------------------------------------
                  HL-Gap            0.0078850 Eh            0.2146 eV
             Fermi-level           -0.3587938 Eh           -9.7633 eV

   #   Z        covCN         q      C6AA      α(0)
   1   7 N      1.787    -0.310    28.865     7.958
   2   6 C      2.815     0.147    24.789     8.158
   3   7 N      1.914     0.118    19.841     6.604
   4   7 N      0.985    -0.103    22.895     6.882
   5   8 O      0.924    -0.258    19.010     5.847
   6   7 N      1.845     0.192    18.642     6.399
   7   6 C      2.831    -0.029    28.706     8.780
   8   1 H      0.860     0.158     1.351     1.821
   9   1 H      0.925     0.085     1.930     2.172

 Mol. C6AA /au·bohr⁶  :       1304.051555
 Mol. C8AA /au·bohr⁸  :      29807.698850
 Mol. α(0) /au        :         54.619791


Wiberg/Mayer (AO) data.
largest (>0.10) Wiberg bond orders for each atom
          total WBO             WBO to atom ...
     1  N   3.125        C    2 1.540    H    8 0.943    N    4 0.160    N    6 0.145    O    5 0.140    N    3 0.128
     2  C   3.939        N    1 1.540    N    3 1.133    C    7 1.051    N    4 0.123
     3  N   3.693        N    4 2.246    C    2 1.133    N    1 0.128
     4  N   2.784        N    3 2.246    N    6 0.189    N    1 0.160    C    2 0.123
     5  O   2.034        N    6 1.506    C    7 0.256    N    1 0.140
     6  N   3.598        C    7 1.623    O    5 1.506    N    4 0.189    N    1 0.145
     7  C   3.948        N    6 1.623    C    2 1.051    H    9 0.906    O    5 0.256
     8  H   0.975        N    1 0.943
     9  H   0.989        C    7 0.906

molecular dipole:
                 x           y           z       tot (Debye)
 q only:       -0.822      -0.043       0.467
   full:       -1.020      -0.039       0.727       3.186
molecular quadrupole (traceless):
                xx          xy          yy          xz          yz          zz
 q only:       -6.922       1.906       3.564       2.483      -1.404       3.358
  q+dip:       -9.162       1.049       4.805       5.205      -2.239       4.357
   full:      -10.302       0.898       5.962       5.807      -2.052       4.340


           -------------------------------------------------
          | TOTAL ENERGY              -20.830525253920 Eh   |
          | GRADIENT NORM               0.024344036239 Eh/α |
          | HOMO-LUMO GAP               0.214562241667 eV   |
           -------------------------------------------------

------------------------------------------------------------------------
 * finished run on 2021/06/02 at 10:00:08.623     
------------------------------------------------------------------------
 total:
 * wall-time:     0 d,  0 h,  0 min,  0.016 sec
 *  cpu-time:     0 d,  0 h,  0 min,  0.016 sec
 * ratio c/w:     0.987 speedup
 SCF:
 * wall-time:     0 d,  0 h,  0 min,  0.009 sec
 *  cpu-time:     0 d,  0 h,  0 min,  0.009 sec
 * ratio c/w:     1.000 speedup

