      -----------------------------------------------------------      
     |                   =====================                   |     
     |                           x T B                           |     
     |                   =====================                   |     
     |                         S. Grimme                         |     
     |          Mulliken Center for Theoretical Chemistry        |     
     |                    University of Bonn                     |     
     |                 Version 6.1.4 (SAW190525)                 |     
      -----------------------------------------------------------      

   This program is distributed in the hope that it will be useful,
   but WITHOUT ANY WARRANTY; without even the implied warranty of
   MERCHANTABILITY or FITNESS FOR A PARTICULAR PURPOSE.
   
   FOR NON-COMMERCIAL, ACADEMIA USE ONLY.
   
   Cite this work as:
   S. Grimme, C. Bannwarth, P. Shushkov, J. Comput. Theory Chem., 2017,
   13, 1989-2009. DOI: 10.1021/acs.jctc.7b00118
   C. Bannwarth, S. Ehlert and S. Grimme., J. Comput. Theory Chem., 2019,
   just accepted. DOI: 10.1021/acs.jctc.8b01176
   
   for sTDA-xTB:
   S. Grimme and C. Bannwarth, J. Chem. Phys., 2016, 145, 054103.
   DOI: 10.1063/1.4959605
   
   in the mass-spec context:
   V. Asgeirsson, C. Bauer and S. Grimme, Chem. Sci., 2017, 8, 4879.
   DOI: 10.1039/c7sc00601b
   
   for metadynamics refer to:
   S. Grimme, J. Chem. Theory Comput. Article ASAP, 2019,
   DOI: 10.1021/acs.jctc.9b00143
   
   with help from (in alphabetical order)
   C. Bannwarth, F. Bohle, G. Brandenburg, E. Caldeweyher, M. Checinski,
   S. Dohm, S. Ehlert, S. Ehrlich, F. März, H. Neugebauer, J. Pisarek,
   P. Pracht, P. Shushkov, and S. Spicher.
   
 * started run on 2021/06/02 at 10:00:08.690     

           -------------------------------------------------
          |                Calculation Setup                |
           -------------------------------------------------

          program call               : /groups/kemi/koerstz/opt/xtb/6.1/bin/xtb path_point_14.xyz --gfn2 --acc 0.2 --chrg 0
          hostname                   : node305
          coordinate file            : path_point_14.xyz
          omp threads                :                     1
          number of atoms            :                     9
          number of electrons        :                    36
          charge                     :                     0
          spin                       :                   0.0
          first test random number   :      0.31396375535378


########################################################################
# WARNING! Please study the warnings concerning your input carefully
#  - XTBPATH is not set, using XTBHOME instead
########################################################################

           ------------------------------------------------- 
          |                 G F N 2 - x T B                 |
          | Geometry, Frequencies, Noncovalent interactions |
          |            JCTC 2018 parametrisation            |
           ------------------------------------------------- 
             k(s)              :                1.8500
             k(p)              :                2.2300
             k(d)              :                2.2300
             k(f)              :                2.0000
             kEN (H0ij)        :               -2.0000
             D4 a1             :                0.5200
             D4 a2             :                5.0000
             D4 s6             :                1.0000
             D4 s8             :                2.7000
             D4 s9             :                5.0000
             alphaj            :                2.0000

  Z AO/shell   Hii/eV     exponent
  1     Wed Apr 25 08:07:45 CEST 2018   EN: 2.200 GM2: 0.406  GM3: 0.0800  RAES: 1.40
     1s    -10.707211    1.230000
  6     Wed Apr 25 08:07:45 CEST 2018   EN: 2.550 GM2: 0.538  GM3: 0.1500  RAES: 3.00
     2s    -13.970922    2.096432
     2p    -10.063292    1.800000
  7     Wed Apr 25 08:07:45 CEST 2018   EN: 3.040 GM2: 0.461  GM3:-0.0640  RAES: 1.90
     2s    -16.686243    2.339881
     2p    -12.523956    2.014332
  8     Wed Apr 25 08:07:45 CEST 2018   EN: 3.440 GM2: 0.452  GM3:-0.0517  RAES: 1.80
     2s    -20.229985    2.439742
     2p    -15.503117    2.137023


            Z     q(EN)     CN     RAES       Cart. coordinates
     1  N   5.0   -0.42    2.02    1.90    -0.95488    -0.30984    -2.42558
     2  C   4.0    0.31    3.01    3.02    -0.83533    -1.64941    -0.39509
     3  N   5.0   -0.15    2.03    1.90    -2.91614    -2.14476     0.94819
     4  N   5.0   -0.15    1.00    1.90    -4.97538    -2.48606     1.43566
     5  O   6.0   -0.10    1.00    1.80     5.78152    -2.61730    -0.51028
     6  N   5.0   -0.14    2.01    1.90     3.53513    -2.47707    -0.53039
     7  C   4.0    0.14    3.01    3.02     1.54953    -2.36390     0.78016
     8  H   1.0    0.33    1.00    1.43    -2.68384     0.35131    -2.93855
     9  H   1.0    0.18    0.99    1.43     1.45418    -2.95517     2.73320

           ------------------------------------------------- 
          |        Self-Consistent Charge Iterations        |
           ------------------------------------------------- 
q/qsh data taken from xtbrestart
CAMM data taken from xtbrestart

          ...................................................
          :                      SETUP                      :
          :.................................................:
          :  # basis functions                  30          :
          :  # atomic orbitals                  30          :
          :  # shells                           16          :
          :  # electrons                        36          :
          :  max. iterations                   250          :
          :  Hamiltonian                  GFN2-xTB          :
          :  restarted?                       true          :
          :  GBSA solvation                  false          :
          :  PC potential                    false          :
          :  electronic temp.          300.0000000     K    :
          :  accuracy                    0.2000000          :
          :  -> integral cutoff          0.3198970E+02      :
          :  -> integral neglect         0.2000000E-08      :
          :  -> SCF convergence          0.2000000E-06 Eh   :
          :  -> wf. convergence          0.2000000E-04 e    :
          :  Broyden damping             0.4000000          :
          ...................................................

 iter      E             dE          RMSdq      gap      omega  full diag
   1    -21.0349299 -0.210349E+02  0.193E+00    0.17       0.0  T
   2    -20.7999761  0.234954E+00  0.520E+00    1.85       1.0  T
   3    -20.9137990 -0.113823E+00  0.370E+00    0.53       1.0  T
   4    -20.9886030 -0.748041E-01  0.274E+00    0.25       1.0  T
   5    -21.0244792 -0.358762E-01  0.210E+00    0.17       1.0  T
   6    -20.9960612  0.284180E-01  0.256E+00    0.20       1.0  T
   7    -21.0136840 -0.176228E-01  0.229E+00    0.19       1.0  T
   8    -21.0780137 -0.643297E-01  0.647E-01    0.17       1.0  T
   9    -21.0662039  0.118098E-01  0.115E+00    0.18       1.0  T
  10    -21.0791078 -0.129040E-01  0.548E-01    0.17       1.0  T
  11    -21.0827032 -0.359535E-02  0.900E-02    0.16       1.0  T
  12    -21.0827821 -0.788787E-04  0.247E-02    0.16       1.3  T
  13    -21.0827450  0.370289E-04  0.544E-02    0.16       1.0  T
  14    -21.0827802 -0.351078E-04  0.154E-02    0.16       2.2  T
  15    -21.0827814 -0.124154E-05  0.119E-02    0.16       2.8  T
  16    -21.0827826 -0.121423E-05  0.701E-03    0.16       4.8  T
  17    -21.0827832 -0.603227E-06  0.172E-03    0.16      19.3  T
  18    -21.0827832 -0.213558E-07  0.114E-03    0.16      29.3  T
  19    -21.0827832 -0.162971E-07  0.200E-04    0.16     166.8  T
  20    -21.0827832 -0.509811E-09  0.182E-05    0.16    1830.5  T

   *** convergence criteria satisfied after 20 iterations ***

         #    Occupation            Energy/Eh            Energy/eV
      -------------------------------------------------------------
         1        2.0000           -0.7545899             -20.5334
       ...           ...                  ...                  ...
        12        2.0000           -0.5540459             -15.0764
        13        2.0000           -0.5174768             -14.0813
        14        2.0000           -0.5054876             -13.7550
        15        2.0000           -0.5015802             -13.6487
        16        2.0000           -0.4278553             -11.6425
        17        2.0000           -0.4259427             -11.5905
        18        1.9096           -0.3567396              -9.7074 (HOMO)
        19        0.0904           -0.3509446              -9.5497 (LUMO)
        20                         -0.3344799              -9.1017
        21                         -0.2767000              -7.5294
        22                         -0.1805535              -4.9131
        23                          0.0249758               0.6796
       ...                                ...                  ...
        30                          0.8654459              23.5500
      -------------------------------------------------------------
                  HL-Gap            0.0057949 Eh            0.1577 eV
             Fermi-level           -0.3538421 Eh           -9.6285 eV

 SCC (total)                   0 d,  0 h,  0 min,  0.009 sec
 SCC setup                      ...        0 min,  0.000 sec (  1.425%)
 Dispersion                     ...        0 min,  0.000 sec (  0.691%)
 integral evaluation            ...        0 min,  0.001 sec ( 12.095%)
 zeroth order Hamiltonian       ...        0 min,  0.000 sec (  0.362%)
 iterations                     ...        0 min,  0.005 sec ( 61.884%)
 molecular gradient             ...        0 min,  0.002 sec ( 21.218%)
 printout                       ...        0 min,  0.000 sec (  1.744%)

         :::::::::::::::::::::::::::::::::::::::::::::::::::::
         ::                     SUMMARY                     ::
         :::::::::::::::::::::::::::::::::::::::::::::::::::::
         :: total energy              -20.830358503536 Eh   ::
         :: gradient norm               0.048304424556 Eh/α ::
         :: HOMO-LUMO gap               0.157688571314 eV   ::
         ::.................................................::
         :: SCC energy                -21.082783247459 Eh   ::
         :: -> isotropic ES             0.025421884276 Eh   ::
         :: -> anisotropic ES           0.004537492828 Eh   ::
         :: -> anisotropic XC           0.024269708911 Eh   ::
         :: -> dispersion              -0.005516257545 Eh   ::
         :: repulsion energy            0.252423979211 Eh   ::
         :: add. restraining            0.000000000000 Eh   ::
         :::::::::::::::::::::::::::::::::::::::::::::::::::::

           -------------------------------------------------
          |                Property Printout                |
           -------------------------------------------------

    * Orbital Energies and Occupations

         #    Occupation            Energy/Eh            Energy/eV
      -------------------------------------------------------------
         1        2.0000           -0.7545899             -20.5334
       ...           ...                  ...                  ...
         6        2.0000           -0.6324904             -17.2109
         7        2.0000           -0.6110435             -16.6273
         8        2.0000           -0.6088780             -16.5684
         9        2.0000           -0.5974368             -16.2571
        10        2.0000           -0.5894389             -16.0394
        11        2.0000           -0.5692948             -15.4913
        12        2.0000           -0.5540459             -15.0764
        13        2.0000           -0.5174768             -14.0813
        14        2.0000           -0.5054876             -13.7550
        15        2.0000           -0.5015802             -13.6487
        16        2.0000           -0.4278553             -11.6425
        17        2.0000           -0.4259427             -11.5905
        18        1.9096           -0.3567396              -9.7074 (HOMO)
        19        0.0904           -0.3509446              -9.5497 (LUMO)
        20                         -0.3344799              -9.1017
        21                         -0.2767000              -7.5294
        22                         -0.1805535              -4.9131
        23                          0.0249758               0.6796
        24                          0.0576880               1.5698
        25                          0.1788845               4.8677
        26                          0.1959804               5.3329
        27                          0.3280386               8.9264
        28                          0.4621964              12.5770
        29                          0.7098641              19.3164
        30                          0.8654459              23.5500
      -------------------------------------------------------------
                  HL-Gap            0.0057949 Eh            0.1577 eV
             Fermi-level           -0.3538421 Eh           -9.6285 eV

   #   Z        covCN         q      C6AA      α(0)
   1   7 N      1.790    -0.316    29.030     7.980
   2   6 C      2.815     0.145    24.846     8.167
   3   7 N      1.915     0.129    19.661     6.574
   4   7 N      0.984    -0.103    22.890     6.881
   5   8 O      0.925    -0.252    18.915     5.833
   6   7 N      1.845     0.200    18.520     6.378
   7   6 C      2.831    -0.036    28.896     8.809
   8   1 H      0.860     0.154     1.371     1.834
   9   1 H      0.926     0.080     1.975     2.198

 Mol. C6AA /au·bohr⁶  :       1305.338908
 Mol. C8AA /au·bohr⁸  :      29832.332886
 Mol. α(0) /au        :         54.654126


Wiberg/Mayer (AO) data.
largest (>0.10) Wiberg bond orders for each atom
          total WBO             WBO to atom ...
     1  N   3.080        C    2 1.521    H    8 0.945    N    4 0.157    N    6 0.135    O    5 0.130    N    3 0.125
     2  C   3.931        N    1 1.521    N    3 1.142    C    7 1.056    N    4 0.127
     3  N   3.693        N    4 2.255    C    2 1.142    N    1 0.125
     4  N   2.763        N    3 2.255    N    6 0.166    N    1 0.157    C    2 0.127
     5  O   2.022        N    6 1.512    C    7 0.260    N    1 0.130
     6  N   3.552        C    7 1.616    O    5 1.512    N    4 0.166    N    1 0.135
     7  C   3.945        N    6 1.616    C    2 1.056    H    9 0.906    O    5 0.260
     8  H   0.976        N    1 0.945
     9  H   0.983        C    7 0.906

molecular dipole:
                 x           y           z       tot (Debye)
 q only:       -0.789      -0.093       0.445
   full:       -0.994      -0.108       0.697       3.098
molecular quadrupole (traceless):
                xx          xy          yy          xz          yz          zz
 q only:       -6.531       2.024       3.541       2.335      -1.281       2.990
  q+dip:       -8.861       1.354       4.871       5.159      -2.062       3.990
   full:      -10.035       1.258       6.029       5.805      -1.820       4.006


           -------------------------------------------------
          | TOTAL ENERGY              -20.830358503536 Eh   |
          | GRADIENT NORM               0.048304424556 Eh/α |
          | HOMO-LUMO GAP               0.157688571314 eV   |
           -------------------------------------------------

------------------------------------------------------------------------
 * finished run on 2021/06/02 at 10:00:08.707     
------------------------------------------------------------------------
 total:
 * wall-time:     0 d,  0 h,  0 min,  0.016 sec
 *  cpu-time:     0 d,  0 h,  0 min,  0.016 sec
 * ratio c/w:     0.987 speedup
 SCF:
 * wall-time:     0 d,  0 h,  0 min,  0.009 sec
 *  cpu-time:     0 d,  0 h,  0 min,  0.009 sec
 * ratio c/w:     1.000 speedup

