      -----------------------------------------------------------      
     |                   =====================                   |     
     |                           x T B                           |     
     |                   =====================                   |     
     |                         S. Grimme                         |     
     |          Mulliken Center for Theoretical Chemistry        |     
     |                    University of Bonn                     |     
     |                 Version 6.1.4 (SAW190525)                 |     
      -----------------------------------------------------------      

   This program is distributed in the hope that it will be useful,
   but WITHOUT ANY WARRANTY; without even the implied warranty of
   MERCHANTABILITY or FITNESS FOR A PARTICULAR PURPOSE.
   
   FOR NON-COMMERCIAL, ACADEMIA USE ONLY.
   
   Cite this work as:
   S. Grimme, C. Bannwarth, P. Shushkov, J. Comput. Theory Chem., 2017,
   13, 1989-2009. DOI: 10.1021/acs.jctc.7b00118
   C. Bannwarth, S. Ehlert and S. Grimme., J. Comput. Theory Chem., 2019,
   just accepted. DOI: 10.1021/acs.jctc.8b01176
   
   for sTDA-xTB:
   S. Grimme and C. Bannwarth, J. Chem. Phys., 2016, 145, 054103.
   DOI: 10.1063/1.4959605
   
   in the mass-spec context:
   V. Asgeirsson, C. Bauer and S. Grimme, Chem. Sci., 2017, 8, 4879.
   DOI: 10.1039/c7sc00601b
   
   for metadynamics refer to:
   S. Grimme, J. Chem. Theory Comput. Article ASAP, 2019,
   DOI: 10.1021/acs.jctc.9b00143
   
   with help from (in alphabetical order)
   C. Bannwarth, F. Bohle, G. Brandenburg, E. Caldeweyher, M. Checinski,
   S. Dohm, S. Ehlert, S. Ehrlich, F. März, H. Neugebauer, J. Pisarek,
   P. Pracht, P. Shushkov, and S. Spicher.
   
 * started run on 2021/06/02 at 10:00:08.669     

           -------------------------------------------------
          |                Calculation Setup                |
           -------------------------------------------------

          program call               : /groups/kemi/koerstz/opt/xtb/6.1/bin/xtb path_point_0.xyz --gfn2 --acc 0.2 --chrg 0
          hostname                   : node305
          coordinate file            : path_point_0.xyz
          omp threads                :                     1
          number of atoms            :                     9
          number of electrons        :                    36
          charge                     :                     0
          spin                       :                   0.0
          first test random number   :      0.36992619719530


########################################################################
# WARNING! Please study the warnings concerning your input carefully
#  - XTBPATH is not set, using XTBHOME instead
########################################################################

           ------------------------------------------------- 
          |                 G F N 2 - x T B                 |
          | Geometry, Frequencies, Noncovalent interactions |
          |            JCTC 2018 parametrisation            |
           ------------------------------------------------- 
             k(s)              :                1.8500
             k(p)              :                2.2300
             k(d)              :                2.2300
             k(f)              :                2.0000
             kEN (H0ij)        :               -2.0000
             D4 a1             :                0.5200
             D4 a2             :                5.0000
             D4 s6             :                1.0000
             D4 s8             :                2.7000
             D4 s9             :                5.0000
             alphaj            :                2.0000

  Z AO/shell   Hii/eV     exponent
  1     Wed Apr 25 08:07:45 CEST 2018   EN: 2.200 GM2: 0.406  GM3: 0.0800  RAES: 1.40
     1s    -10.707211    1.230000
  6     Wed Apr 25 08:07:45 CEST 2018   EN: 2.550 GM2: 0.538  GM3: 0.1500  RAES: 3.00
     2s    -13.970922    2.096432
     2p    -10.063292    1.800000
  7     Wed Apr 25 08:07:45 CEST 2018   EN: 3.040 GM2: 0.461  GM3:-0.0640  RAES: 1.90
     2s    -16.686243    2.339881
     2p    -12.523956    2.014332
  8     Wed Apr 25 08:07:45 CEST 2018   EN: 3.440 GM2: 0.452  GM3:-0.0517  RAES: 1.80
     2s    -20.229985    2.439742
     2p    -15.503117    2.137023


            Z     q(EN)     CN     RAES       Cart. coordinates
     1  N   5.0   -0.42    2.01    1.90    -0.96623    -0.29475    -2.43129
     2  C   4.0    0.32    3.01    3.02    -0.83918    -1.61805    -0.39047
     3  N   5.0   -0.15    2.02    1.90    -2.89640    -2.05428     1.02654
     4  N   5.0   -0.15    1.00    1.90    -4.96250    -2.67469     1.32692
     5  O   6.0   -0.10    1.00    1.80     5.79956    -2.67773    -0.52193
     6  N   5.0   -0.14    2.01    1.90     3.50248    -2.58677    -0.57041
     7  C   4.0    0.14    3.01    3.02     1.55384    -2.29231     0.79984
     8  H   1.0    0.33    1.00    1.43    -2.69037     0.42194    -2.90439
     9  H   1.0    0.18    0.99    1.43     1.45359    -2.87557     2.76251

           ------------------------------------------------- 
          |        Self-Consistent Charge Iterations        |
           ------------------------------------------------- 
q/qsh data taken from xtbrestart
CAMM data taken from xtbrestart

          ...................................................
          :                      SETUP                      :
          :.................................................:
          :  # basis functions                  30          :
          :  # atomic orbitals                  30          :
          :  # shells                           16          :
          :  # electrons                        36          :
          :  max. iterations                   250          :
          :  Hamiltonian                  GFN2-xTB          :
          :  restarted?                       true          :
          :  GBSA solvation                  false          :
          :  PC potential                    false          :
          :  electronic temp.          300.0000000     K    :
          :  accuracy                    0.2000000          :
          :  -> integral cutoff          0.3198970E+02      :
          :  -> integral neglect         0.2000000E-08      :
          :  -> SCF convergence          0.2000000E-06 Eh   :
          :  -> wf. convergence          0.2000000E-04 e    :
          :  Broyden damping             0.4000000          :
          ...................................................

 iter      E             dE          RMSdq      gap      omega  full diag
   1    -20.9767536 -0.209768E+02  0.261E+00    0.32       0.0  T
   2    -20.2245812  0.752172E+00  0.792E+00    0.25       1.0  T
   3    -20.8566731 -0.632092E+00  0.420E+00    0.50       1.0  T
   4    -21.0221419 -0.165469E+00  0.185E+00    0.25       1.0  T
   5    -21.0510572 -0.289153E-01  0.103E+00    0.24       1.0  T
   6    -21.0567568 -0.569964E-02  0.778E-01    0.22       1.0  T
   7    -21.0637717 -0.701487E-02  0.244E-01    0.22       1.0  T
   8    -21.0641398 -0.368079E-03  0.168E-01    0.22       1.0  T
   9    -21.0644868 -0.347030E-03  0.306E-02    0.22       1.1  T
  10    -21.0644942 -0.743932E-05  0.158E-02    0.22       2.1  T
  11    -21.0644953 -0.110395E-05  0.112E-02    0.22       3.0  T
  12    -21.0644970 -0.165967E-05  0.233E-03    0.22      14.3  T
  13    -21.0644964  0.546143E-06  0.688E-03    0.22       4.8  T
  14    -21.0644970 -0.551798E-06  0.206E-03    0.22      16.2  T
  15    -21.0644970 -0.447316E-07  0.783E-04    0.22      42.5  T
  16    -21.0644970 -0.685149E-08  0.298E-04    0.22     112.0  T
  17    -21.0644970 -0.107793E-08  0.746E-05    0.22     447.0  T
  18    -21.0644970 -0.712532E-10  0.632E-06    0.22    5275.6  T

   *** convergence criteria satisfied after 18 iterations ***

         #    Occupation            Energy/Eh            Energy/eV
      -------------------------------------------------------------
         1        2.0000           -0.7473583             -20.3367
       ...           ...                  ...                  ...
        12        2.0000           -0.5536267             -15.0649
        13        2.0000           -0.5187827             -14.1168
        14        2.0000           -0.5059137             -13.7666
        15        2.0000           -0.5021880             -13.6652
        16        2.0000           -0.4319594             -11.7542
        17        2.0000           -0.4300962             -11.7035
        18        1.9722           -0.3655642              -9.9475 (HOMO)
        19        0.0278           -0.3574671              -9.7272 (LUMO)
        20                         -0.3422314              -9.3126
        21                         -0.2890742              -7.8661
        22                         -0.1950639              -5.3080
        23                          0.0194325               0.5288
       ...                                ...                  ...
        30                          0.7720641              21.0089
      -------------------------------------------------------------
                  HL-Gap            0.0080971 Eh            0.2203 eV
             Fermi-level           -0.3615157 Eh           -9.8373 eV

 SCC (total)                   0 d,  0 h,  0 min,  0.008 sec
 SCC setup                      ...        0 min,  0.000 sec (  1.448%)
 Dispersion                     ...        0 min,  0.000 sec (  0.687%)
 integral evaluation            ...        0 min,  0.001 sec ( 12.559%)
 zeroth order Hamiltonian       ...        0 min,  0.000 sec (  0.374%)
 iterations                     ...        0 min,  0.005 sec ( 59.868%)
 molecular gradient             ...        0 min,  0.002 sec ( 22.896%)
 printout                       ...        0 min,  0.000 sec (  1.784%)

         :::::::::::::::::::::::::::::::::::::::::::::::::::::
         ::                     SUMMARY                     ::
         :::::::::::::::::::::::::::::::::::::::::::::::::::::
         :: total energy              -20.830500464120 Eh   ::
         :: gradient norm               0.039313262285 Eh/α ::
         :: HOMO-LUMO gap               0.220331959962 eV   ::
         ::.................................................::
         :: SCC energy                -21.064497049729 Eh   ::
         :: -> isotropic ES             0.025993334557 Eh   ::
         :: -> anisotropic ES           0.004070986684 Eh   ::
         :: -> anisotropic XC           0.024592303661 Eh   ::
         :: -> dispersion              -0.005499836819 Eh   ::
         :: repulsion energy            0.233995599160 Eh   ::
         :: add. restraining            0.000000000000 Eh   ::
         :::::::::::::::::::::::::::::::::::::::::::::::::::::

           -------------------------------------------------
          |                Property Printout                |
           -------------------------------------------------

    * Orbital Energies and Occupations

         #    Occupation            Energy/Eh            Energy/eV
      -------------------------------------------------------------
         1        2.0000           -0.7473583             -20.3367
       ...           ...                  ...                  ...
         6        2.0000           -0.6319116             -17.1952
         7        2.0000           -0.6083505             -16.5541
         8        2.0000           -0.6051735             -16.4676
         9        2.0000           -0.5922560             -16.1161
        10        2.0000           -0.5859231             -15.9438
        11        2.0000           -0.5693749             -15.4935
        12        2.0000           -0.5536267             -15.0649
        13        2.0000           -0.5187827             -14.1168
        14        2.0000           -0.5059137             -13.7666
        15        2.0000           -0.5021880             -13.6652
        16        2.0000           -0.4319594             -11.7542
        17        2.0000           -0.4300962             -11.7035
        18        1.9722           -0.3655642              -9.9475 (HOMO)
        19        0.0278           -0.3574671              -9.7272 (LUMO)
        20                         -0.3422314              -9.3126
        21                         -0.2890742              -7.8661
        22                         -0.1950639              -5.3080
        23                          0.0194325               0.5288
        24                          0.0544674               1.4821
        25                          0.1660578               4.5187
        26                          0.1740256               4.7355
        27                          0.3132065               8.5228
        28                          0.4483132              12.1992
        29                          0.6332647              17.2320
        30                          0.7720641              21.0089
      -------------------------------------------------------------
                  HL-Gap            0.0080971 Eh            0.2203 eV
             Fermi-level           -0.3615157 Eh           -9.8373 eV

   #   Z        covCN         q      C6AA      α(0)
   1   7 N      1.787    -0.307    28.779     7.946
   2   6 C      2.815     0.150    24.739     8.149
   3   7 N      1.914     0.115    19.901     6.614
   4   7 N      0.985    -0.102    22.866     6.877
   5   8 O      0.924    -0.260    19.048     5.853
   6   7 N      1.845     0.187    18.718     6.412
   7   6 C      2.831    -0.027    28.662     8.773
   8   1 H      0.860     0.159     1.341     1.814
   9   1 H      0.925     0.085     1.929     2.172

 Mol. C6AA /au·bohr⁶  :       1303.712884
 Mol. C8AA /au·bohr⁸  :      29799.464741
 Mol. α(0) /au        :         54.610558


Wiberg/Mayer (AO) data.
largest (>0.10) Wiberg bond orders for each atom
          total WBO             WBO to atom ...
     1  N   3.134        C    2 1.547    H    8 0.942    N    4 0.163    N    6 0.143    O    5 0.140    N    3 0.129
     2  C   3.941        N    1 1.547    N    3 1.129    C    7 1.055    N    4 0.118
     3  N   3.688        N    4 2.241    C    2 1.129    N    1 0.129
     4  N   2.783        N    3 2.241    N    6 0.191    N    1 0.163    C    2 0.118
     5  O   2.029        N    6 1.505    C    7 0.252    N    1 0.140
     6  N   3.590        C    7 1.617    O    5 1.505    N    4 0.191    N    1 0.143
     7  C   3.948        N    6 1.617    C    2 1.055    H    9 0.907    O    5 0.252
     8  H   0.975        N    1 0.942
     9  H   0.990        C    7 0.907

molecular dipole:
                 x           y           z       tot (Debye)
 q only:       -0.855      -0.018       0.450
   full:       -1.054      -0.013       0.713       3.234
molecular quadrupole (traceless):
                xx          xy          yy          xz          yz          zz
 q only:       -7.016       2.023       3.497       2.432      -1.369       3.519
  q+dip:       -9.249       1.154       4.713       5.117      -2.214       4.536
   full:      -10.370       0.993       5.876       5.693      -2.031       4.494


           -------------------------------------------------
          | TOTAL ENERGY              -20.830500464120 Eh   |
          | GRADIENT NORM               0.039313262285 Eh/α |
          | HOMO-LUMO GAP               0.220331959962 eV   |
           -------------------------------------------------

------------------------------------------------------------------------
 * finished run on 2021/06/02 at 10:00:08.685     
------------------------------------------------------------------------
 total:
 * wall-time:     0 d,  0 h,  0 min,  0.016 sec
 *  cpu-time:     0 d,  0 h,  0 min,  0.015 sec
 * ratio c/w:     0.988 speedup
 SCF:
 * wall-time:     0 d,  0 h,  0 min,  0.008 sec
 *  cpu-time:     0 d,  0 h,  0 min,  0.008 sec
 * ratio c/w:     1.000 speedup

