      -----------------------------------------------------------      
     |                   =====================                   |     
     |                           x T B                           |     
     |                   =====================                   |     
     |                         S. Grimme                         |     
     |          Mulliken Center for Theoretical Chemistry        |     
     |                    University of Bonn                     |     
     |                 Version 6.1.4 (SAW190525)                 |     
      -----------------------------------------------------------      

   This program is distributed in the hope that it will be useful,
   but WITHOUT ANY WARRANTY; without even the implied warranty of
   MERCHANTABILITY or FITNESS FOR A PARTICULAR PURPOSE.
   
   FOR NON-COMMERCIAL, ACADEMIA USE ONLY.
   
   Cite this work as:
   S. Grimme, C. Bannwarth, P. Shushkov, J. Comput. Theory Chem., 2017,
   13, 1989-2009. DOI: 10.1021/acs.jctc.7b00118
   C. Bannwarth, S. Ehlert and S. Grimme., J. Comput. Theory Chem., 2019,
   just accepted. DOI: 10.1021/acs.jctc.8b01176
   
   for sTDA-xTB:
   S. Grimme and C. Bannwarth, J. Chem. Phys., 2016, 145, 054103.
   DOI: 10.1063/1.4959605
   
   in the mass-spec context:
   V. Asgeirsson, C. Bauer and S. Grimme, Chem. Sci., 2017, 8, 4879.
   DOI: 10.1039/c7sc00601b
   
   for metadynamics refer to:
   S. Grimme, J. Chem. Theory Comput. Article ASAP, 2019,
   DOI: 10.1021/acs.jctc.9b00143
   
   with help from (in alphabetical order)
   C. Bannwarth, F. Bohle, G. Brandenburg, E. Caldeweyher, M. Checinski,
   S. Dohm, S. Ehlert, S. Ehrlich, F. März, H. Neugebauer, J. Pisarek,
   P. Pracht, P. Shushkov, and S. Spicher.
   
 * started run on 2021/06/02 at 10:00:08.862     

           -------------------------------------------------
          |                Calculation Setup                |
           -------------------------------------------------

          program call               : /groups/kemi/koerstz/opt/xtb/6.1/bin/xtb path_point_7.xyz --gfn2 --acc 0.2 --chrg 0
          hostname                   : node305
          coordinate file            : path_point_7.xyz
          omp threads                :                     1
          number of atoms            :                     9
          number of electrons        :                    36
          charge                     :                     0
          spin                       :                   0.0
          first test random number   :      0.74232351551647


########################################################################
# WARNING! Please study the warnings concerning your input carefully
#  - XTBPATH is not set, using XTBHOME instead
########################################################################

           ------------------------------------------------- 
          |                 G F N 2 - x T B                 |
          | Geometry, Frequencies, Noncovalent interactions |
          |            JCTC 2018 parametrisation            |
           ------------------------------------------------- 
             k(s)              :                1.8500
             k(p)              :                2.2300
             k(d)              :                2.2300
             k(f)              :                2.0000
             kEN (H0ij)        :               -2.0000
             D4 a1             :                0.5200
             D4 a2             :                5.0000
             D4 s6             :                1.0000
             D4 s8             :                2.7000
             D4 s9             :                5.0000
             alphaj            :                2.0000

  Z AO/shell   Hii/eV     exponent
  1     Wed Apr 25 08:07:45 CEST 2018   EN: 2.200 GM2: 0.406  GM3: 0.0800  RAES: 1.40
     1s    -10.707211    1.230000
  6     Wed Apr 25 08:07:45 CEST 2018   EN: 2.550 GM2: 0.538  GM3: 0.1500  RAES: 3.00
     2s    -13.970922    2.096432
     2p    -10.063292    1.800000
  7     Wed Apr 25 08:07:45 CEST 2018   EN: 3.040 GM2: 0.461  GM3:-0.0640  RAES: 1.90
     2s    -16.686243    2.339881
     2p    -12.523956    2.014332
  8     Wed Apr 25 08:07:45 CEST 2018   EN: 3.440 GM2: 0.452  GM3:-0.0517  RAES: 1.80
     2s    -20.229985    2.439742
     2p    -15.503117    2.137023


            Z     q(EN)     CN     RAES       Cart. coordinates
     1  N   5.0   -0.42    2.01    1.90    -0.93607    -0.32725    -2.43980
     2  C   4.0    0.31    3.01    3.02    -0.84418    -1.67468    -0.41110
     3  N   5.0   -0.15    2.02    1.90    -2.91714    -2.10940     0.97532
     4  N   5.0   -0.15    1.00    1.90    -4.97243    -2.53921     1.40875
     5  O   6.0   -0.10    1.00    1.80     5.79554    -2.57972    -0.61182
     6  N   5.0   -0.15    2.01    1.90     3.53107    -2.53671    -0.47171
     7  C   4.0    0.14    3.01    3.02     1.54094    -2.35904     0.80817
     8  H   1.0    0.33    1.00    1.43    -2.65394     0.40227    -2.92266
     9  H   1.0    0.18    1.00    1.43     1.41098    -2.92848     2.76217

           ------------------------------------------------- 
          |        Self-Consistent Charge Iterations        |
           ------------------------------------------------- 
q/qsh data taken from xtbrestart
CAMM data taken from xtbrestart

          ...................................................
          :                      SETUP                      :
          :.................................................:
          :  # basis functions                  30          :
          :  # atomic orbitals                  30          :
          :  # shells                           16          :
          :  # electrons                        36          :
          :  max. iterations                   250          :
          :  Hamiltonian                  GFN2-xTB          :
          :  restarted?                       true          :
          :  GBSA solvation                  false          :
          :  PC potential                    false          :
          :  electronic temp.          300.0000000     K    :
          :  accuracy                    0.2000000          :
          :  -> integral cutoff          0.3198970E+02      :
          :  -> integral neglect         0.2000000E-08      :
          :  -> SCF convergence          0.2000000E-06 Eh   :
          :  -> wf. convergence          0.2000000E-04 e    :
          :  Broyden damping             0.4000000          :
          ...................................................

 iter      E             dE          RMSdq      gap      omega  full diag
   1    -20.9437062 -0.209437E+02  0.334E+00    0.30       0.0  T
   2    -20.6898398  0.253866E+00  0.630E+00    1.68       1.0  T
   3    -20.8730480 -0.183208E+00  0.410E+00    0.93       1.0  T
   4    -21.0661244 -0.193076E+00  0.106E+00    0.22       1.0  T
   5    -21.0785307 -0.124062E-01  0.350E-01    0.20       1.0  T
   6    -20.9973366  0.811940E-01  0.252E+00    0.28       1.0  T
   7    -21.0672260 -0.698894E-01  0.965E-01    0.20       1.0  T
   8    -21.0770752 -0.984919E-02  0.415E-01    0.20       1.0  T
   9    -21.0772491 -0.173881E-03  0.395E-01    0.19       1.0  T
  10    -21.0790521 -0.180303E-02  0.125E-01    0.19       1.0  T
  11    -21.0790220  0.301595E-04  0.133E-01    0.19       1.0  T
  12    -21.0792291 -0.207087E-03  0.401E-02    0.19       1.0  T
  13    -21.0792491 -0.199948E-04  0.815E-03    0.19       4.1  T
  14    -21.0792493 -0.278907E-06  0.676E-03    0.19       4.9  T
  15    -21.0792497 -0.385688E-06  0.392E-03    0.19       8.5  T
  16    -21.0792499 -0.197454E-06  0.301E-04    0.19     110.8  T
  17    -21.0792499 -0.111741E-08  0.365E-05    0.19     912.5  T
  18    -21.0792499  0.258982E-09  0.146E-04    0.19     228.2  T

   *** convergence criteria satisfied after 18 iterations ***

         #    Occupation            Energy/Eh            Energy/eV
      -------------------------------------------------------------
         1        2.0000           -0.7526964             -20.4819
       ...           ...                  ...                  ...
        12        2.0000           -0.5541158             -15.0783
        13        2.0000           -0.5158948             -14.0382
        14        2.0000           -0.5055435             -13.7565
        15        2.0000           -0.5000788             -13.6078
        16        2.0000           -0.4303560             -11.7106
        17        2.0000           -0.4255733             -11.5804
        18        1.9515           -0.3565946              -9.7034 (HOMO)
        19        0.0485           -0.3495729              -9.5124 (LUMO)
        20                         -0.3327600              -9.0549
        21                         -0.2795766              -7.6077
        22                         -0.1848158              -5.0291
        23                          0.0180220               0.4904
       ...                                ...                  ...
        30                          0.8571720              23.3248
      -------------------------------------------------------------
                  HL-Gap            0.0070217 Eh            0.1911 eV
             Fermi-level           -0.3530837 Eh           -9.6079 eV

 SCC (total)                   0 d,  0 h,  0 min,  0.008 sec
 SCC setup                      ...        0 min,  0.000 sec (  1.531%)
 Dispersion                     ...        0 min,  0.000 sec (  0.704%)
 integral evaluation            ...        0 min,  0.001 sec ( 12.677%)
 zeroth order Hamiltonian       ...        0 min,  0.000 sec (  0.396%)
 iterations                     ...        0 min,  0.005 sec ( 60.025%)
 molecular gradient             ...        0 min,  0.002 sec ( 22.280%)
 printout                       ...        0 min,  0.000 sec (  1.962%)

         :::::::::::::::::::::::::::::::::::::::::::::::::::::
         ::                     SUMMARY                     ::
         :::::::::::::::::::::::::::::::::::::::::::::::::::::
         :: total energy              -20.829156453606 Eh   ::
         :: gradient norm               0.038566736418 Eh/α ::
         :: HOMO-LUMO gap               0.191068996731 eV   ::
         ::.................................................::
         :: SCC energy                -21.079249917472 Eh   ::
         :: -> isotropic ES             0.025634747908 Eh   ::
         :: -> anisotropic ES           0.004498488742 Eh   ::
         :: -> anisotropic XC           0.024601504952 Eh   ::
         :: -> dispersion              -0.005510616118 Eh   ::
         :: repulsion energy            0.250092657891 Eh   ::
         :: add. restraining            0.000000000000 Eh   ::
         :::::::::::::::::::::::::::::::::::::::::::::::::::::

           -------------------------------------------------
          |                Property Printout                |
           -------------------------------------------------

    * Orbital Energies and Occupations

         #    Occupation            Energy/Eh            Energy/eV
      -------------------------------------------------------------
         1        2.0000           -0.7526964             -20.4819
       ...           ...                  ...                  ...
         6        2.0000           -0.6323724             -17.2077
         7        2.0000           -0.6108620             -16.6224
         8        2.0000           -0.6068943             -16.5144
         9        2.0000           -0.5965383             -16.2326
        10        2.0000           -0.5888268             -16.0228
        11        2.0000           -0.5705685             -15.5260
        12        2.0000           -0.5541158             -15.0783
        13        2.0000           -0.5158948             -14.0382
        14        2.0000           -0.5055435             -13.7565
        15        2.0000           -0.5000788             -13.6078
        16        2.0000           -0.4303560             -11.7106
        17        2.0000           -0.4255733             -11.5804
        18        1.9515           -0.3565946              -9.7034 (HOMO)
        19        0.0485           -0.3495729              -9.5124 (LUMO)
        20                         -0.3327600              -9.0549
        21                         -0.2795766              -7.6077
        22                         -0.1848158              -5.0291
        23                          0.0180220               0.4904
        24                          0.0576030               1.5675
        25                          0.1668955               4.5415
        26                          0.1880588               5.1173
        27                          0.3176920               8.6448
        28                          0.4563740              12.4186
        29                          0.7222601              19.6537
        30                          0.8571720              23.3248
      -------------------------------------------------------------
                  HL-Gap            0.0070217 Eh            0.1911 eV
             Fermi-level           -0.3530837 Eh           -9.6079 eV

   #   Z        covCN         q      C6AA      α(0)
   1   7 N      1.787    -0.318    29.057     7.984
   2   6 C      2.814     0.142    24.896     8.175
   3   7 N      1.914     0.124    19.736     6.587
   4   7 N      0.985    -0.107    22.969     6.893
   5   8 O      0.924    -0.252    18.918     5.833
   6   7 N      1.844     0.203    18.472     6.370
   7   6 C      2.831    -0.032    28.791     8.793
   8   1 H      0.860     0.154     1.373     1.835
   9   1 H      0.926     0.085     1.924     2.169

 Mol. C6AA /au·bohr⁶  :       1304.735700
 Mol. C8AA /au·bohr⁸  :      29825.046611
 Mol. α(0) /au        :         54.638431


Wiberg/Mayer (AO) data.
largest (>0.10) Wiberg bond orders for each atom
          total WBO             WBO to atom ...
     1  N   3.100        C    2 1.525    H    8 0.944    N    4 0.153    N    6 0.148    O    5 0.138    N    3 0.126
     2  C   3.933        N    1 1.525    N    3 1.142    C    7 1.039    N    4 0.133
     3  N   3.699        N    4 2.252    C    2 1.142    N    1 0.126
     4  N   2.779        N    3 2.252    N    6 0.181    N    1 0.153    C    2 0.133
     5  O   2.039        N    6 1.508    C    7 0.265    N    1 0.138
     6  N   3.609        C    7 1.640    O    5 1.508    N    4 0.181    N    1 0.148
     7  C   3.948        N    6 1.640    C    2 1.039    H    9 0.904    O    5 0.265
     8  H   0.976        N    1 0.944
     9  H   0.987        C    7 0.904

molecular dipole:
                 x           y           z       tot (Debye)
 q only:       -0.739      -0.101       0.505
   full:       -0.935      -0.102       0.757       3.069
molecular quadrupole (traceless):
                xx          xy          yy          xz          yz          zz
 q only:       -6.717       1.614       3.730       2.648      -1.494       2.988
  q+dip:       -8.950       0.800       5.020       5.452      -2.304       3.929
   full:      -10.133       0.676       6.163       6.121      -2.106       3.970


           -------------------------------------------------
          | TOTAL ENERGY              -20.829156453606 Eh   |
          | GRADIENT NORM               0.038566736418 Eh/α |
          | HOMO-LUMO GAP               0.191068996731 eV   |
           -------------------------------------------------

------------------------------------------------------------------------
 * finished run on 2021/06/02 at 10:00:08.879     
------------------------------------------------------------------------
 total:
 * wall-time:     0 d,  0 h,  0 min,  0.016 sec
 *  cpu-time:     0 d,  0 h,  0 min,  0.016 sec
 * ratio c/w:     0.987 speedup
 SCF:
 * wall-time:     0 d,  0 h,  0 min,  0.008 sec
 *  cpu-time:     0 d,  0 h,  0 min,  0.008 sec
 * ratio c/w:     1.000 speedup

