      -----------------------------------------------------------      
     |                   =====================                   |     
     |                           x T B                           |     
     |                   =====================                   |     
     |                         S. Grimme                         |     
     |          Mulliken Center for Theoretical Chemistry        |     
     |                    University of Bonn                     |     
     |                 Version 6.1.4 (SAW190525)                 |     
      -----------------------------------------------------------      

   This program is distributed in the hope that it will be useful,
   but WITHOUT ANY WARRANTY; without even the implied warranty of
   MERCHANTABILITY or FITNESS FOR A PARTICULAR PURPOSE.
   
   FOR NON-COMMERCIAL, ACADEMIA USE ONLY.
   
   Cite this work as:
   S. Grimme, C. Bannwarth, P. Shushkov, J. Comput. Theory Chem., 2017,
   13, 1989-2009. DOI: 10.1021/acs.jctc.7b00118
   C. Bannwarth, S. Ehlert and S. Grimme., J. Comput. Theory Chem., 2019,
   just accepted. DOI: 10.1021/acs.jctc.8b01176
   
   for sTDA-xTB:
   S. Grimme and C. Bannwarth, J. Chem. Phys., 2016, 145, 054103.
   DOI: 10.1063/1.4959605
   
   in the mass-spec context:
   V. Asgeirsson, C. Bauer and S. Grimme, Chem. Sci., 2017, 8, 4879.
   DOI: 10.1039/c7sc00601b
   
   for metadynamics refer to:
   S. Grimme, J. Chem. Theory Comput. Article ASAP, 2019,
   DOI: 10.1021/acs.jctc.9b00143
   
   with help from (in alphabetical order)
   C. Bannwarth, F. Bohle, G. Brandenburg, E. Caldeweyher, M. Checinski,
   S. Dohm, S. Ehlert, S. Ehrlich, F. März, H. Neugebauer, J. Pisarek,
   P. Pracht, P. Shushkov, and S. Spicher.
   
 * started run on 2021/03/14 at 23:57:08.288     

           -------------------------------------------------
          |                Calculation Setup                |
           -------------------------------------------------

          program call               : /opt/xtb/6.1/xtb-190527/bin/xtb 0.8_md.xyz --md --input metadyn.inp --gfn 2
          hostname                   : mnode007
          coordinate file            : 0.8_md.xyz
          omp threads                :                     1
          number of atoms            :                    12
          number of electrons        :                    36
          charge                     :                     0
          spin                       :                   0.0
          first test random number   :      0.32140763770773

spherical wallpotenial with radius    3.6488561 Å

########################################################################
# WARNING! Please study the warnings concerning your input carefully
#  - XTBPATH is not set, using XTBHOME instead
########################################################################

           ------------------------------------------------- 
          |                 G F N 2 - x T B                 |
          | Geometry, Frequencies, Noncovalent interactions |
          |            JCTC 2018 parametrisation            |
           ------------------------------------------------- 
             k(s)              :                1.8500
             k(p)              :                2.2300
             k(d)              :                2.2300
             k(f)              :                2.0000
             kEN (H0ij)        :               -2.0000
             D4 a1             :                0.5200
             D4 a2             :                5.0000
             D4 s6             :                1.0000
             D4 s8             :                2.7000
             D4 s9             :                5.0000
             alphaj            :                2.0000

  Z AO/shell   Hii/eV     exponent
  1     Wed Apr 25 08:07:45 CEST 2018   EN: 2.200 GM2: 0.406  GM3: 0.0800  RAES: 1.40
     1s    -10.707211    1.230000
  6     Wed Apr 25 08:07:45 CEST 2018   EN: 2.550 GM2: 0.538  GM3: 0.1500  RAES: 3.00
     2s    -13.970922    2.096432
     2p    -10.063292    1.800000
  8     Wed Apr 25 08:07:45 CEST 2018   EN: 3.440 GM2: 0.452  GM3:-0.0517  RAES: 1.80
     2s    -20.229985    2.439742
     2p    -15.503117    2.137023


            Z     q(EN)     CN     RAES       Cart. coordinates
     1  C   4.0    0.08    2.99    3.02     1.70115     3.61696     0.19176
     2  O   6.0   -0.34    1.00    1.80     2.76313     4.75510     1.91162
     3  C   4.0   -0.10    3.98    3.58    -0.18770     1.53135     0.59324
     4  H   1.0    0.14    0.99    1.43     1.97669     4.44918    -1.70038
     5  C   4.0   -0.05    3.97    3.58     0.30679    -0.98032    -0.69709
     6  H   1.0    0.11    0.99    1.43    -2.08854     1.91092    -0.12730
     7  H   1.0    0.16    0.99    1.43    -0.44973     0.90749     2.54819
     8  O   6.0   -0.18    1.91    1.82     2.23118    -2.52459     0.39285
     9  H   1.0    0.13    0.99    1.43     1.35130    -0.57309    -2.43866
    10  H   1.0    0.12    0.99    1.43    -1.37234    -2.17656    -0.88601
    11  O   6.0   -0.33    1.92    1.82     1.34757    -3.59150     2.76784
    12  H   1.0    0.26    0.99    1.43     0.03035    -4.78196     2.27725

           ------------------------------------------------- 
          |        Self-Consistent Charge Iterations        |
           ------------------------------------------------- 

          ...................................................
          :                      SETUP                      :
          :.................................................:
          :  # basis functions                  30          :
          :  # atomic orbitals                  30          :
          :  # shells                           18          :
          :  # electrons                        36          :
          :  max. iterations                   250          :
          :  Hamiltonian                  GFN2-xTB          :
          :  restarted?                      false          :
          :  GBSA solvation                  false          :
          :  PC potential                    false          :
          :  electronic temp.         6000.0000000     K    :
          :  accuracy                    1.0000000          :
          :  -> integral cutoff          0.2500000E+02      :
          :  -> integral neglect         0.1000000E-07      :
          :  -> SCF convergence          0.1000000E-05 Eh   :
          :  -> wf. convergence          0.1000000E-03 e    :
          :  Broyden damping             0.4000000          :
          ...................................................

 iter      E             dE          RMSdq      gap      omega  full diag
   1    -21.6702265 -0.216702E+02  0.496E+00    4.29       0.0  T
   2    -21.7023194 -0.320929E-01  0.253E+00    3.37       1.0  T
   3    -21.7027552 -0.435805E-03  0.173E+00    3.94       1.0  T
   4    -21.7113735 -0.861828E-02  0.178E-01    3.58       1.0  T
   5    -21.7115502 -0.176679E-03  0.867E-02    3.62       1.0  T
   6    -21.7115572 -0.707884E-05  0.300E-02    3.62       1.0  T
   7    -21.7115585 -0.122356E-05  0.963E-03    3.62       3.0  T
   8    -21.7115588 -0.327393E-06  0.436E-03    3.62       6.6  T
   9    -21.7115588 -0.383045E-07  0.168E-03    3.62      17.2  T
  10    -21.7115588 -0.146807E-07  0.903E-04    3.62      32.0  T
  11    -21.7115588 -0.512560E-08  0.380E-04    3.62      75.9  T

   *** convergence criteria satisfied after 11 iterations ***

         #    Occupation            Energy/Eh            Energy/eV
      -------------------------------------------------------------
         1        2.0000           -0.7361143             -20.0307
       ...           ...                  ...                  ...
        12        1.9999           -0.5382571             -14.6467
        13        1.9997           -0.5152401             -14.0204
        14        1.9991           -0.4930477             -13.4165
        15        1.9988           -0.4872801             -13.2596
        16        1.9975           -0.4722624             -12.8509
        17        1.9894           -0.4449769             -12.1084
        18        1.9486           -0.4146387             -11.2829 (HOMO)
        19        0.0665           -0.2815404              -7.6611 (LUMO)
        20        0.0004           -0.1850042              -5.0342
        21                         -0.0024067              -0.0655
        22                          0.0375441               1.0216
        23                          0.0666165               1.8127
       ...                                ...                  ...
        30                          0.5137196              13.9790
      -------------------------------------------------------------
                  HL-Gap            0.1330983 Eh            3.6218 eV
             Fermi-level           -0.3455576 Eh           -9.4031 eV

 SCC (total)                   0 d,  0 h,  0 min,  0.679 sec
 SCC setup                      ...        0 min,  0.001 sec (  0.118%)
 Dispersion                     ...        0 min,  0.000 sec (  0.053%)
 integral evaluation            ...        0 min,  0.006 sec (  0.814%)
 zeroth order Hamiltonian       ...        0 min,  0.332 sec ( 48.869%)
 iterations                     ...        0 min,  0.016 sec (  2.353%)
 molecular gradient             ...        0 min,  0.005 sec (  0.800%)
 printout                       ...        0 min,  0.319 sec ( 46.985%)

         :::::::::::::::::::::::::::::::::::::::::::::::::::::
         ::                     SUMMARY                     ::
         :::::::::::::::::::::::::::::::::::::::::::::::::::::
         :: total energy              -21.548143286976 Eh   ::
         :: gradient norm               0.093719956061 Eh/α ::
         :: HOMO-LUMO gap               3.621789070107 eV   ::
         ::.................................................::
         :: SCC energy                -21.711558840014 Eh   ::
         :: -> isotropic ES             0.050736561677 Eh   ::
         :: -> anisotropic ES          -0.002909442484 Eh   ::
         :: -> anisotropic XC          -0.002012016729 Eh   ::
         :: -> dispersion              -0.005692119884 Eh   ::
         :: repulsion energy            0.163409202746 Eh   ::
         :: add. restraining            0.000000418606 Eh   ::
         :::::::::::::::::::::::::::::::::::::::::::::::::::::

           -------------------------------------------------
          |                Property Printout                |
           -------------------------------------------------

    * Orbital Energies and Occupations

         #    Occupation            Energy/Eh            Energy/eV
      -------------------------------------------------------------
         1        2.0000           -0.7361143             -20.0307
       ...           ...                  ...                  ...
         6        2.0000           -0.6193096             -16.8523
         7        2.0000           -0.5976488             -16.2629
         8        2.0000           -0.5938216             -16.1587
         9        2.0000           -0.5836884             -15.8830
        10        2.0000           -0.5578737             -15.1805
        11        2.0000           -0.5498279             -14.9616
        12        1.9999           -0.5382571             -14.6467
        13        1.9997           -0.5152401             -14.0204
        14        1.9991           -0.4930477             -13.4165
        15        1.9988           -0.4872801             -13.2596
        16        1.9975           -0.4722624             -12.8509
        17        1.9894           -0.4449769             -12.1084
        18        1.9486           -0.4146387             -11.2829 (HOMO)
        19        0.0665           -0.2815404              -7.6611 (LUMO)
        20        0.0004           -0.1850042              -5.0342
        21                         -0.0024067              -0.0655
        22                          0.0375441               1.0216
        23                          0.0666165               1.8127
        24                          0.1208142               3.2875
        25                          0.1359414               3.6992
        26                          0.1485448               4.0421
        27                          0.1874005               5.0994
        28                          0.2193265               5.9682
        29                          0.2923158               7.9543
        30                          0.5137196              13.9790
      -------------------------------------------------------------
                  HL-Gap            0.1330983 Eh            3.6218 eV
             Fermi-level           -0.3455576 Eh           -9.4031 eV

   #   Z        covCN         q      C6AA      α(0)
   1   6 C      2.756     0.204    23.659     7.965
   2   8 O      0.856    -0.315    20.059     6.005
   3   6 C      3.801    -0.089    22.206     6.709
   4   1 H      0.923     0.041     2.440     2.443
   5   6 C      3.674     0.076    19.543     6.335
   6   1 H      0.924     0.074     2.046     2.237
   7   1 H      0.924     0.097     1.816     2.108
   8   8 O      1.753    -0.211    17.497     5.648
   9   1 H      0.924     0.081     1.970     2.195
  10   1 H      0.924     0.048     2.340     2.392
  11   8 O      1.709    -0.313    19.227     5.920
  12   1 H      0.804     0.309     0.695     1.309

 Mol. C6AA /au·bohr⁶  :       1227.557494
 Mol. C8AA /au·bohr⁸  :      26109.840012
 Mol. α(0) /au        :         51.266256


Wiberg/Mayer (AO) data.
largest (>0.10) Wiberg bond orders for each atom
          total WBO             WBO to atom ...
     1  C   3.848        O    2 1.877    C    3 1.008    H    4 0.932
     2  O   2.008        C    1 1.877
     3  C   3.971        C    1 1.008    C    5 0.980    H    7 0.959    H    6 0.942
     4  H   0.984        C    1 0.932
     5  C   3.938        O    8 0.987    C    3 0.980    H   10 0.966    H    9 0.948
     6  H   0.990        C    3 0.942
     7  H   0.989        C    3 0.959
     8  O   2.019        C    5 0.987    O   11 0.970
     9  H   0.992        C    5 0.948
    10  H   0.995        C    5 0.966
    11  O   1.921        O    8 0.970    H   12 0.895
    12  H   0.904        O   11 0.895

molecular dipole:
                 x           y           z       tot (Debye)
 q only:       -1.441      -0.533      -0.988
   full:       -1.769      -0.737      -1.261       5.831
molecular quadrupole (traceless):
                xx          xy          yy          xz          yz          zz
 q only:       -1.588      -0.172       0.196      -5.059      -4.035       1.393
  q+dip:       -1.532       1.272       1.003      -6.868      -5.304       0.529
   full:       -1.510       0.272       0.955      -6.901      -5.365       0.555


           -------------------------------------------------
          | TOTAL ENERGY              -21.548143286976 Eh   |
          | GRADIENT NORM               0.093719956061 Eh/α |
          | HOMO-LUMO GAP               3.621789070107 eV   |
           -------------------------------------------------
           ------------------------------------------------- 
          |                  Meta Dynamics                  |
           ------------------------------------------------- 
 trajectories on xtb.trj or xtb.trj.<n>
 
 MD time /ps        :   50.00
 dt /fs             :    0.40
 SCC accuracy       :    2.00
 temperature /K     :  300.00
 max steps          :125000
 block length (av.) :  5000
 dumpstep(trj) /fs  :   10.00    25
 dumpstep(coords)/fs: 1000.00  2500
 H atoms mass (amu) :     2
 # deg. of freedom  :    36
 SHAKE off
 Berendsen THERMOSTAT on
kpush  :    0.050
alpha  :    0.300
update : 100
         time (ps)    <Epot>      Ekin   <T>   T     Etot
      0    0.00      0.00000   0.0428    0.    0.   -21.45539
est. speed in wall clock h for 100 ps :  1.02
    200    0.08    -21.40190   0.0566  655.  994.   -21.46464
    400    0.16    -21.46157   0.0731  812. 1283.   -21.46772
    600    0.24    -21.48531   0.0550  891.  965.   -21.47528
    800    0.32    -21.49410   0.0424  852.  745.   -21.47996
   1000    0.40    -21.49897   0.0234  810.  410.   -21.48395
   1200    0.48    -21.50264   0.0405  781.  710.   -21.48642
   1400    0.56    -21.50609   0.0459  766.  806.   -21.49007
   1600    0.64    -21.50964   0.0451  764.  791.   -21.49343
   1800    0.72    -21.51197   0.0428  748.  751.   -21.49794
   2000    0.80    -21.51447   0.0269  740.  472.   -21.50065
   2200    0.88    -21.51624   0.0220  724.  386.   -21.50188
   2400    0.96    -21.51769   0.0289  707.  507.   -21.50530
   2600    1.04    -21.51810   0.0425  694.  745.   -21.46571
   2800    1.12    -21.51699   0.0521  694.  913.   -21.46473
   3000    1.20    -21.51715   0.0470  709.  825.   -21.46820
   3200    1.28    -21.51750   0.0393  720.  690.   -21.47549
   3400    1.36    -21.51756   0.0404  720.  708.   -21.47969
   3600    1.44    -21.51749   0.0329  715.  577.   -21.48224
   3800    1.52    -21.51720   0.0303  704.  531.   -21.48336
   4000    1.60    -21.51720   0.0286  697.  502.   -21.48665
   4200    1.68    -21.51747   0.0371  693.  651.   -21.48886
   4400    1.76    -21.51801   0.0346  692.  606.   -21.49201
   4600    1.84    -21.51828   0.0234  685.  410.   -21.49433
   4800    1.92    -21.51853   0.0335  678.  588.   -21.49797
block <Epot> / <T> :     -21.52344  676.     drift:  0.99D+02   Tbath : 300.
   5000    2.00    -21.51913   0.0397  676.  696.   -21.49984
   5200    2.08    -21.51843   0.0379  674.  665.   -21.45728
   5400    2.16    -21.51784   0.0480  677.  842.   -21.46052
   5600    2.24    -21.51772   0.0383  685.  672.   -21.46637
   5800    2.32    -21.51716   0.0196  682.  345.   -21.46888
   6000    2.40    -21.51677   0.0377  680.  661.   -21.47344
   6200    2.48    -21.51672   0.0377  681.  661.   -21.47596
   6400    2.56    -21.51655   0.0382  679.  670.   -21.47911
   6600    2.64    -21.51664   0.0369  679.  647.   -21.48212
   6800    2.72    -21.51652   0.0293  675.  515.   -21.48242
   7000    2.80    -21.51666   0.0317  673.  556.   -21.48655
   7200    2.88    -21.51665   0.0249  668.  436.   -21.48854
   7400    2.96    -21.51649   0.0274  660.  480.   -21.48982
   7600    3.04    -21.51614   0.0382  655.  670.   -21.44933
   7800    3.12    -21.51562   0.0462  660.  811.   -21.45054
   8000    3.20    -21.51536   0.0405  666.  710.   -21.45646
   8200    3.28    -21.51476   0.0216  664.  380.   -21.45852
   8400    3.36    -21.51445   0.0453  666.  795.   -21.46298
   8600    3.44    -21.51434   0.0301  669.  527.   -21.46643
   8800    3.52    -21.51407   0.0419  667.  736.   -21.46951
   9000    3.60    -21.51401   0.0288  668.  506.   -21.47273
   9200    3.68    -21.51377   0.0353  664.  620.   -21.47497
   9400    3.76    -21.51367   0.0378  662.  663.   -21.47672
   9600    3.84    -21.51364   0.0266  661.  467.   -21.48055
   9800    3.92    -21.51356   0.0319  658.  559.   -21.48187
  10000    4.00    -21.51357   0.0260  655.  455.   -21.48385
block <Epot> / <T> :     -21.50800  635.     drift:  0.99D+02   Tbath : 300.
  10200    4.08    -21.51295   0.0254  653.  445.   -21.43980
  10400    4.16    -21.51227   0.0431  653.  755.   -21.44332
  10600    4.24    -21.51175   0.0344  653.  603.   -21.44700
  10800    4.32    -21.51116   0.0470  652.  825.   -21.44973
  11000    4.40    -21.51076   0.0403  652.  707.   -21.45340
  11200    4.48    -21.51050   0.0484  653.  850.   -21.45587
  11400    4.56    -21.51017   0.0232  652.  407.   -21.45869
  11600    4.64    -21.50983   0.0326  650.  571.   -21.46108
  11800    4.72    -21.50948   0.0227  647.  397.   -21.46293
  12000    4.80    -21.50912   0.0233  643.  409.   -21.46441
  12200    4.88    -21.50883   0.0231  640.  406.   -21.46491
  12400    4.96    -21.50854   0.0223  637.  392.   -21.46649
  12600    5.04    -21.50814   0.0222  634.  390.   -21.42510
  12800    5.12    -21.50724   0.0354  632.  620.   -21.42255
  13000    5.20    -21.50647   0.0218  631.  383.   -21.42421
  13200    5.28    -21.50572   0.0165  630.  290.   -21.42775
  13400    5.36    -21.50497   0.0320  628.  562.   -21.42934
  13600    5.44    -21.50434   0.0336  627.  589.   -21.43205
  13800    5.52    -21.50381   0.0402  626.  705.   -21.43523
  14000    5.60    -21.50340   0.0379  627.  665.   -21.43815
  14200    5.68    -21.50293   0.0368  626.  646.   -21.44012
  14400    5.76    -21.50244   0.0325  624.  571.   -21.44181
  14600    5.84    -21.50211   0.0330  624.  579.   -21.44474
  14800    5.92    -21.50172   0.0206  622.  361.   -21.44544
  15000    6.00    -21.50140   0.0296  621.  520.   -21.44810
block <Epot> / <T> :     -21.47705  552.     drift:  0.99D+02   Tbath : 300.
  15200    6.08    -21.50077   0.0239  621.  419.   -21.40686
  15400    6.16    -21.50001   0.0379  621.  665.   -21.40960
  15600    6.24    -21.49934   0.0416  621.  730.   -21.41425
  15800    6.32    -21.49892   0.0614  624. 1078.   -21.41699
  16000    6.40    -21.49846   0.0305  626.  535.   -21.42176
  16200    6.48    -21.49801   0.0337  626.  591.   -21.42703
  16400    6.56    -21.49752   0.0210  625.  369.   -21.42855
  16600    6.64    -21.49714   0.0422  625.  740.   -21.43134
  16800    6.72    -21.49685   0.0363  626.  637.   -21.43540
  17000    6.80    -21.49652   0.0346  625.  607.   -21.43742
  17200    6.88    -21.49625   0.0378  625.  664.   -21.43952
  17400    6.96    -21.49590   0.0299  623.  524.   -21.44175
  17600    7.04    -21.49550   0.0365  622.  641.   -21.40111
  17800    7.12    -21.49475   0.0312  621.  548.   -21.39880
  18000    7.20    -21.49407   0.0458  621.  803.   -21.40095
  18200    7.28    -21.49357   0.0424  622.  743.   -21.40658
  18400    7.36    -21.49310   0.0341  624.  598.   -21.40976
  18600    7.44    -21.49268   0.0415  625.  729.   -21.41394
  18800    7.52    -21.49222   0.0333  625.  585.   -21.41567
  19000    7.60    -21.49183   0.0382  625.  670.   -21.41837
  19200    7.68    -21.49137   0.0229  623.  402.   -21.42162
  19400    7.76    -21.49104   0.0327  624.  573.   -21.42395
  19600    7.84    -21.49065   0.0231  622.  405.   -21.42592
  19800    7.92    -21.49032   0.0390  621.  685.   -21.42888
  20000    8.00    -21.49002   0.0267  620.  469.   -21.43116
block <Epot> / <T> :     -21.45587  620.     drift:  0.23D-01   Tbath : 300.
  20200    8.08    -21.48931   0.0181  618.  318.   -21.38470
  20400    8.16    -21.48858   0.0432  617.  758.   -21.38663
  20600    8.24    -21.48801   0.0477  618.  837.   -21.39028
  20800    8.32    -21.48750   0.0312  620.  547.   -21.39450
  21000    8.40    -21.48702   0.0299  620.  525.   -21.39817
  21200    8.48    -21.48652   0.0238  620.  418.   -21.40088
  21400    8.56    -21.48606   0.0430  620.  755.   -21.40554
  21600    8.64    -21.48563   0.0376  620.  659.   -21.40580
  21800    8.72    -21.48522   0.0342  619.  599.   -21.40939
  22000    8.80    -21.48482   0.0249  619.  437.   -21.41278
  22200    8.88    -21.48444   0.0326  618.  571.   -21.41437
  22400    8.96    -21.48413   0.0307  618.  539.   -21.41576
  22600    9.04    -21.48373   0.0261  617.  458.   -21.37934
  22800    9.12    -21.48311   0.0447  617.  785.   -21.37865
  23000    9.20    -21.48266   0.0607  620. 1065.   -21.38403
  23200    9.28    -21.48222   0.0303  621.  531.   -21.38857
  23400    9.36    -21.48170   0.0465  621.  816.   -21.39234
  23600    9.44    -21.48123   0.0296  620.  519.   -21.39309
  23800    9.52    -21.48071   0.0277  619.  487.   -21.39521
  24000    9.60    -21.48029   0.0316  619.  555.   -21.39753
  24200    9.68    -21.47989   0.0349  619.  611.   -21.40102
  24400    9.76    -21.47949   0.0269  618.  472.   -21.40272
  24600    9.84    -21.47908   0.0275  616.  482.   -21.40426
  24800    9.92    -21.47874   0.0188  616.  329.   -21.40611
  25000   10.00    -21.47838   0.0260  615.  455.   -21.40839
block <Epot> / <T> :     -21.43179  592.     drift:  0.25D-01   Tbath : 300.
  25200   10.08    -21.47775   0.0236  613.  415.   -21.36295
  25400   10.16    -21.47715   0.0552  614.  968.   -21.36473
  25600   10.24    -21.47657   0.0351  614.  615.   -21.36872
  25800   10.32    -21.47602   0.0438  614.  768.   -21.37138
  26000   10.40    -21.47549   0.0396  614.  695.   -21.37447
  26200   10.48    -21.47502   0.0425  614.  746.   -21.37786
  26400   10.56    -21.47459   0.0409  615.  717.   -21.38250
  26600   10.64    -21.47421   0.0429  615.  753.   -21.38522
  26800   10.72    -21.47381   0.0373  615.  655.   -21.38891
  27000   10.80    -21.47347   0.0421  616.  739.   -21.39109
  27200   10.88    -21.47314   0.0422  616.  740.   -21.39310
  27400   10.96    -21.47275   0.0277  614.  487.   -21.39549
  27600   11.04    -21.47235   0.0427  614.  750.   -21.35651
  27800   11.12    -21.47173   0.0250  614.  439.   -21.35350
  28000   11.20    -21.47111   0.0351  613.  617.   -21.35568
  28200   11.28    -21.47056   0.0506  613.  887.   -21.36019
  28400   11.36    -21.47011   0.0364  614.  638.   -21.36327
  28600   11.44    -21.46961   0.0285  614.  499.   -21.36740
  28800   11.52    -21.46909   0.0353  613.  619.   -21.36853
  29000   11.60    -21.46867   0.0324  614.  568.   -21.37116
  29200   11.68    -21.46822   0.0359  613.  629.   -21.37392
  29400   11.76    -21.46777   0.0336  612.  590.   -21.37527
  29600   11.84    -21.46734   0.0329  611.  576.   -21.37710
  29800   11.92    -21.46694   0.0316  611.  554.   -21.37974
  30000   12.00    -21.46656   0.0242  610.  425.   -21.38257
block <Epot> / <T> :     -21.40744  586.     drift:  0.23D-01   Tbath : 300.
  30200   12.08    -21.46606   0.0584  611. 1025.   -21.34169
  30400   12.16    -21.46559   0.0374  612.  656.   -21.34653
  30600   12.24    -21.46502   0.0324  612.  568.   -21.34884
  30800   12.32    -21.46454   0.0416  612.  730.   -21.35272
  31000   12.40    -21.46411   0.0309  613.  543.   -21.35626
  31200   12.48    -21.46366   0.0305  613.  535.   -21.36043
  31400   12.56    -21.46324   0.0366  613.  642.   -21.36257
  31600   12.64    -21.46283   0.0315  613.  552.   -21.36538
  31800   12.72    -21.46243   0.0440  613.  773.   -21.36777
  32000   12.80    -21.46206   0.0249  613.  436.   -21.37018
  32200   12.88    -21.46167   0.0226  612.  397.   -21.37335
  32400   12.96    -21.46130   0.0270  611.  474.   -21.37483
  32600   13.04    -21.46087   0.0333  611.  585.   -21.33506
  32800   13.12    -21.46028   0.0316  610.  555.   -21.33374
  33000   13.20    -21.45978   0.0353  611.  620.   -21.33717
  33200   13.28    -21.45928   0.0441  611.  774.   -21.34029
  33400   13.36    -21.45885   0.0552  612.  968.   -21.34417
  33600   13.44    -21.45841   0.0266  613.  467.   -21.34802
  33800   13.52    -21.45796   0.0281  613.  493.   -21.35131
  34000   13.60    -21.45754   0.0303  612.  532.   -21.35371
  34200   13.68    -21.45713   0.0256  612.  450.   -21.35606
  34400   13.76    -21.45673   0.0245  612.  430.   -21.35854
  34600   13.84    -21.45634   0.0200  611.  350.   -21.36012
  34800   13.92    -21.45596   0.0258  611.  452.   -21.36277
  35000   14.00    -21.45559   0.0379  610.  665.   -21.36404
block <Epot> / <T> :     -21.38973  611.     drift:  0.22D-01   Tbath : 300.
  35200   14.08    -21.45504   0.0201  609.  353.   -21.31907
  35400   14.16    -21.45446   0.0394  609.  691.   -21.32275
  35600   14.24    -21.45393   0.0375  609.  658.   -21.32445
  35800   14.32    -21.45340   0.0428  609.  751.   -21.32732
  36000   14.40    -21.45295   0.0413  610.  724.   -21.33087
  36200   14.48    -21.45248   0.0342  610.  599.   -21.33425
  36400   14.56    -21.45199   0.0333  609.  585.   -21.33550
  36600   14.64    -21.45153   0.0269  609.  473.   -21.33782
  36800   14.72    -21.45110   0.0246  609.  431.   -21.34095
  37000   14.80    -21.45069   0.0258  609.  452.   -21.34306
  37200   14.88    -21.45024   0.0310  608.  545.   -21.34400
  37400   14.96    -21.44982   0.0307  607.  538.   -21.34633
  37600   15.04    -21.44937   0.0249  606.  437.   -21.30668
  37800   15.12    -21.44873   0.0348  606.  611.   -21.30128
  38000   15.20    -21.44811   0.0344  605.  604.   -21.30297
  38200   15.28    -21.44760   0.0683  606. 1199.   -21.30750
  38400   15.36    -21.44715   0.0618  608. 1083.   -21.31352
  38600   15.44    -21.44673   0.0464  609.  814.   -21.31780
  38800   15.52    -21.44631   0.0315  610.  553.   -21.32342
  39000   15.60    -21.44587   0.0245  610.  429.   -21.32590
  39200   15.68    -21.44540   0.0252  609.  442.   -21.32825
  39400   15.76    -21.44501   0.0469  610.  822.   -21.33199
  39600   15.84    -21.44464   0.0200  610.  351.   -21.33516
  39800   15.92    -21.44425   0.0451  610.  791.   -21.33746
  40000   16.00    -21.44388   0.0299  609.  525.   -21.33962
block <Epot> / <T> :     -21.36187  603.     drift:  0.23D-01   Tbath : 300.
  40200   16.08    -21.44336   0.0283  609.  496.   -21.29706
  40400   16.16    -21.44281   0.0254  609.  445.   -21.29894
  40600   16.24    -21.44224   0.0249  608.  437.   -21.30128
  40800   16.32    -21.44170   0.0247  608.  434.   -21.30419
  41000   16.40    -21.44118   0.0132  607.  232.   -21.30607
  41200   16.48    -21.44065   0.0316  607.  555.   -21.30557
  41400   16.56    -21.44013   0.0236  606.  413.   -21.30802
  41600   16.64    -21.43964   0.0248  605.  435.   -21.30893
  41800   16.72    -21.43914   0.0259  605.  455.   -21.31209
  42000   16.80    -21.43864   0.0299  604.  525.   -21.31255
  42200   16.88    -21.43818   0.0213  603.  374.   -21.31353
  42400   16.96    -21.43771   0.0294  602.  515.   -21.31497
  42600   17.04    -21.43720   0.0230  601.  403.   -21.27554
  42800   17.12    -21.43655   0.0271  601.  475.   -21.26945
  43000   17.20    -21.43597   0.0618  601. 1085.   -21.27396
  43200   17.28    -21.43549   0.0336  603.  589.   -21.27969
  43400   17.36    -21.43498   0.0422  604.  740.   -21.28441
  43600   17.44    -21.43453   0.0526  605.  923.   -21.29013
  43800   17.52    -21.43409   0.0475  606.  832.   -21.29553
  44000   17.60    -21.43367   0.0351  606.  617.   -21.29779
  44200   17.68    -21.43327   0.0530  607.  930.   -21.30464
  44400   17.76    -21.43287   0.0451  608.  792.   -21.30792
  44600   17.84    -21.43249   0.0311  608.  545.   -21.31227
  44800   17.92    -21.43211   0.0338  608.  593.   -21.31303
  45000   18.00    -21.43173   0.0350  608.  615.   -21.31755
block <Epot> / <T> :     -21.33456  597.     drift:  0.25D-01   Tbath : 300.
  45200   18.08    -21.43128   0.0408  608.  715.   -21.27192
  45400   18.16    -21.43078   0.0432  609.  759.   -21.27889
  45600   18.24    -21.43032   0.0413  610.  724.   -21.28453
  45800   18.32    -21.42986   0.0433  610.  759.   -21.28873
  46000   18.40    -21.42943   0.0246  610.  431.   -21.28906
  46200   18.48    -21.42899   0.0380  610.  667.   -21.29623
  46400   18.56    -21.42857   0.0240  610.  420.   -21.29802
  46600   18.64    -21.42817   0.0376  610.  659.   -21.30136
  46800   18.72    -21.42776   0.0300  610.  526.   -21.30435
  47000   18.80    -21.42737   0.0307  610.  538.   -21.30622
  47200   18.88    -21.42698   0.0189  609.  331.   -21.30794
  47400   18.96    -21.42660   0.0356  609.  624.   -21.31070
  47600   19.04    -21.42620   0.0378  609.  663.   -21.27231
  47800   19.12    -21.42574   0.0530  609.  929.   -21.27143
  48000   19.20    -21.42535   0.0327  611.  574.   -21.27831
  48200   19.28    -21.42497   0.0502  612.  881.   -21.28398
  48400   19.36    -21.42458   0.0435  613.  764.   -21.28817
  48600   19.44    -21.42420   0.0495  614.  868.   -21.29218
  48800   19.52    -21.42385   0.0476  614.  835.   -21.29834
  49000   19.60    -21.42351   0.0389  615.  682.   -21.30158
  49200   19.68    -21.42318   0.0374  615.  655.   -21.30431
  49400   19.76    -21.42283   0.0287  615.  504.   -21.30819
  49600   19.84    -21.42250   0.0281  615.  492.   -21.31071
  49800   19.92    -21.42217   0.0232  614.  406.   -21.31115
  50000   20.00    -21.42184   0.0227  614.  399.   -21.31191
block <Epot> / <T> :     -21.33280  670.     drift:  0.20D-01   Tbath : 300.
  50200   20.08    -21.42140   0.0247  614.  434.   -21.26693
  50400   20.16    -21.42091   0.0248  613.  434.   -21.26762
  50600   20.24    -21.42042   0.0146  613.  256.   -21.27053
  50800   20.32    -21.41993   0.0255  612.  448.   -21.27008
  51000   20.40    -21.41945   0.0339  611.  595.   -21.27393
  51200   20.48    -21.41899   0.0189  611.  332.   -21.27526
  51400   20.56    -21.41852   0.0223  610.  391.   -21.27693
  51600   20.64    -21.41806   0.0292  609.  512.   -21.27709
  51800   20.72    -21.41761   0.0268  609.  471.   -21.27890
  52000   20.80    -21.41716   0.0195  608.  342.   -21.27871
  52200   20.88    -21.41671   0.0227  607.  399.   -21.27902
  52400   20.96    -21.41628   0.0368  606.  645.   -21.28150
  52600   21.04    -21.41588   0.0407  606.  714.   -21.24469
  52800   21.12    -21.41541   0.0448  607.  786.   -21.24604
  53000   21.20    -21.41491   0.0461  607.  808.   -21.24687
  53200   21.28    -21.41446   0.0443  608.  777.   -21.25180
  53400   21.36    -21.41399   0.0399  608.  700.   -21.25456
  53600   21.44    -21.41352   0.0359  608.  631.   -21.25914
  53800   21.52    -21.41308   0.0369  608.  647.   -21.26113
  54000   21.60    -21.41264   0.0293  608.  514.   -21.26271
  54200   21.68    -21.41221   0.0466  608.  818.   -21.26418
  54400   21.76    -21.41179   0.0301  608.  528.   -21.26702
  54600   21.84    -21.41137   0.0295  607.  518.   -21.27113
  54800   21.92    -21.41097   0.0305  607.  535.   -21.27194
  55000   22.00    -21.41056   0.0283  606.  497.   -21.27426
block <Epot> / <T> :     -21.29764  531.     drift:  0.19D-01   Tbath : 300.
  55200   22.08    -21.41004   0.0313  606.  549.   -21.22574
  55400   22.16    -21.40951   0.0528  606.  926.   -21.23029
  55600   22.24    -21.40907   0.0456  607.  800.   -21.23455
  55800   22.32    -21.40863   0.0441  608.  774.   -21.24088
  56000   22.40    -21.40818   0.0397  608.  697.   -21.24499
  56200   22.48    -21.40774   0.0363  609.  637.   -21.24833
  56400   22.56    -21.40731   0.0284  609.  498.   -21.25072
  56600   22.64    -21.40690   0.0387  609.  680.   -21.25499
  56800   22.72    -21.40649   0.0343  609.  602.   -21.25783
  57000   22.80    -21.40613   0.0415  609.  728.   -21.26089
  57200   22.88    -21.40575   0.0377  610.  662.   -21.26415
  57400   22.96    -21.40538   0.0193  609.  339.   -21.26731
  57600   23.04    -21.40498   0.0328  609.  575.   -21.23072
  57800   23.12    -21.40446   0.0329  609.  576.   -21.22538
  58000   23.20    -21.40400   0.0534  609.  936.   -21.22872
  58200   23.28    -21.40359   0.0424  611.  743.   -21.23554
  58400   23.36    -21.40318   0.0507  611.  889.   -21.24128
  58600   23.44    -21.40280   0.0450  612.  789.   -21.24552
  58800   23.52    -21.40243   0.0280  613.  491.   -21.25078
  59000   23.60    -21.40206   0.0381  613.  669.   -21.25339
  59200   23.68    -21.40169   0.0275  613.  483.   -21.25678
  59400   23.76    -21.40131   0.0363  613.  637.   -21.25944
  59600   23.84    -21.40095   0.0299  613.  525.   -21.26261
  59800   23.92    -21.40059   0.0278  613.  487.   -21.26486
  60000   24.00    -21.40025   0.0335  613.  588.   -21.26836
block <Epot> / <T> :     -21.28687  680.     drift:  0.18D-01   Tbath : 300.
  60200   24.08    -21.39981   0.0289  612.  508.   -21.22306
  60400   24.16    -21.39931   0.0330  612.  579.   -21.22439
  60600   24.24    -21.39886   0.0296  612.  519.   -21.22749
  60800   24.32    -21.39841   0.0388  612.  680.   -21.23076
  61000   24.40    -21.39799   0.0271  612.  475.   -21.23364
  61200   24.48    -21.39758   0.0415  612.  728.   -21.23645
  61400   24.56    -21.39718   0.0382  612.  670.   -21.23925
  61600   24.64    -21.39683   0.0369  613.  648.   -21.24563
  61800   24.72    -21.39644   0.0318  613.  558.   -21.24827
  62000   24.80    -21.39608   0.0419  613.  735.   -21.24953
  62200   24.88    -21.39574   0.0427  613.  750.   -21.25381
  62400   24.96    -21.39539   0.0281  613.  493.   -21.25525
  62600   25.04    -21.39500   0.0300  612.  527.   -21.21782
  62800   25.12    -21.39450   0.0204  612.  358.   -21.21166
  63000   25.20    -21.39403   0.0481  612.  844.   -21.21409
  63200   25.28    -21.39362   0.0516  612.  905.   -21.22008
  63400   25.36    -21.39322   0.0323  613.  567.   -21.22423
  63600   25.44    -21.39281   0.0472  613.  828.   -21.22672
  63800   25.52    -21.39243   0.0307  613.  538.   -21.23052
  64000   25.60    -21.39204   0.0329  613.  577.   -21.23491
  64200   25.68    -21.39166   0.0369  613.  647.   -21.23678
  64400   25.76    -21.39130   0.0278  613.  487.   -21.24096
  64600   25.84    -21.39092   0.0317  613.  556.   -21.24204
  64800   25.92    -21.39056   0.0301  613.  529.   -21.24470
  65000   26.00    -21.39020   0.0318  612.  557.   -21.24546
block <Epot> / <T> :     -21.26946  611.     drift:  0.20D-01   Tbath : 300.
  65200   26.08    -21.38978   0.0545  613.  957.   -21.20251
  65400   26.16    -21.38936   0.0483  613.  847.   -21.20885
  65600   26.24    -21.38895   0.0633  614. 1110.   -21.21241
  65800   26.32    -21.38856   0.0441  614.  773.   -21.21610
  66000   26.40    -21.38819   0.0449  615.  787.   -21.22185
  66200   26.48    -21.38782   0.0354  615.  621.   -21.22397
  66400   26.56    -21.38745   0.0304  615.  534.   -21.22804
  66600   26.64    -21.38709   0.0292  615.  512.   -21.23290
  66800   26.72    -21.38674   0.0438  615.  769.   -21.23586
  67000   26.80    -21.38639   0.0298  615.  523.   -21.23657
  67200   26.88    -21.38605   0.0245  615.  429.   -21.23953
  67400   26.96    -21.38572   0.0345  615.  605.   -21.24347
  67600   27.04    -21.38559   0.1770  619. 3106.   -21.22364
  67800   27.12    -21.38578   0.2049  628. 3595.   -21.25090
  68000   27.20    -21.38599   0.2233  636. 3918.   -21.28334
  68200   27.28    -21.38625   0.1866  643. 3273.   -21.30196
  68400   27.36    -21.38658   0.1588  650. 2786.   -21.34256
  68600   27.44    -21.38697   0.1657  657. 2907.   -21.35403
  68800   27.52    -21.38734   0.1599  663. 2805.   -21.38338
  69000   27.60    -21.38772   0.1329  667. 2331.   -21.39741
  69200   27.68    -21.38810   0.1178  671. 2067.   -21.41157
  69400   27.76    -21.38847   0.0914  674. 1604.   -21.42848
  69600   27.84    -21.38890   0.1210  677. 2122.   -21.44051
  69800   27.92    -21.38935   0.1042  680. 1827.   -21.45498
  70000   28.00    -21.38979   0.0730  682. 1281.   -21.47068
block <Epot> / <T> :     -21.38524 1589.     drift: -0.25D-01   Tbath : 300.
  70200   28.08    -21.39017   0.0752  684. 1319.   -21.43596
  70400   28.16    -21.39054   0.0987  686. 1732.   -21.44445
  70600   28.24    -21.39096   0.0683  689. 1199.   -21.46064
  70800   28.32    -21.39141   0.0949  691. 1664.   -21.47085
  71000   28.40    -21.39189   0.0746  693. 1309.   -21.47999
  71200   28.48    -21.39236   0.0614  695. 1076.   -21.48933
  71400   28.56    -21.39283   0.0602  696. 1056.   -21.49909
  71600   28.64    -21.39333   0.0668  698. 1172.   -21.50813
  71800   28.72    -21.39381   0.0627  699. 1100.   -21.51033
  72000   28.80    -21.39433   0.0591  700. 1037.   -21.51759
  72200   28.88    -21.39483   0.0509  700.  893.   -21.52966
  72400   28.96    -21.39534   0.0390  701.  683.   -21.53153
  72600   29.04    -21.39583   0.0620  701. 1088.   -21.49868
  72800   29.12    -21.39630   0.0663  703. 1163.   -21.50030
  73000   29.20    -21.39676   0.0703  704. 1234.   -21.50680
  73200   29.28    -21.39724   0.0593  705. 1041.   -21.51248
  73400   29.36    -21.39773   0.0421  705.  738.   -21.52159
  73600   29.44    -21.39820   0.0357  706.  627.   -21.52868
  73800   29.52    -21.39868   0.0424  706.  745.   -21.52981
  74000   29.60    -21.39916   0.0384  706.  674.   -21.53399
  74200   29.68    -21.39964   0.0383  706.  672.   -21.53594
  74400   29.76    -21.40013   0.0415  706.  728.   -21.54308
  74600   29.84    -21.40063   0.0416  706.  730.   -21.54982
  74800   29.92    -21.40112   0.0371  706.  650.   -21.55155
  75000   30.00    -21.40160   0.0283  705.  497.   -21.55230
block <Epot> / <T> :     -21.56694 1024.     drift: -0.96D-01   Tbath : 300.
  75200   30.08    -21.40199   0.0402  704.  706.   -21.50866
  75400   30.16    -21.40242   0.0601  705. 1054.   -21.51328
  75600   30.24    -21.40287   0.0454  706.  796.   -21.52048
  75800   30.32    -21.40331   0.0529  706.  927.   -21.52298
  76000   30.40    -21.40374   0.0497  706.  872.   -21.52870
  76200   30.48    -21.40420   0.0440  706.  772.   -21.53382
  76400   30.56    -21.40463   0.0346  706.  608.   -21.53810
  76600   30.64    -21.40509   0.0531  706.  932.   -21.54041
  76800   30.72    -21.40556   0.0366  706.  642.   -21.54405
  77000   30.80    -21.40600   0.0311  706.  546.   -21.54848
  77200   30.88    -21.40647   0.0376  706.  659.   -21.55115
  77400   30.96    -21.40693   0.0295  705.  518.   -21.55225
  77600   31.04    -21.40737   0.0384  705.  673.   -21.51982
  77800   31.12    -21.40776   0.0455  705.  798.   -21.51530
  78000   31.20    -21.40820   0.0419  706.  734.   -21.52291
  78200   31.28    -21.40862   0.0353  706.  620.   -21.52931
  78400   31.36    -21.40904   0.0468  706.  821.   -21.53245
  78600   31.44    -21.40946   0.0318  706.  558.   -21.53669
  78800   31.52    -21.40988   0.0213  706.  373.   -21.54092
  79000   31.60    -21.41029   0.0448  706.  787.   -21.54094
  79200   31.68    -21.41070   0.0367  705.  643.   -21.54576
  79400   31.76    -21.41112   0.0440  705.  771.   -21.54783
  79600   31.84    -21.41157   0.0409  705.  717.   -21.55147
  79800   31.92    -21.41202   0.0271  705.  475.   -21.55518
  80000   32.00    -21.41243   0.0204  704.  359.   -21.55589
block <Epot> / <T> :     -21.57493  687.     drift: -0.11D+00   Tbath : 300.
  80200   32.08    -21.41278   0.0459  703.  805.   -21.51131
  80400   32.16    -21.41315   0.0566  704.  992.   -21.51575
  80600   32.24    -21.41353   0.0579  704. 1016.   -21.52070
  80800   32.32    -21.41392   0.0444  704.  779.   -21.52611
  81000   32.40    -21.41431   0.0489  704.  858.   -21.52945
  81200   32.48    -21.41471   0.0446  705.  782.   -21.53572
  81400   32.56    -21.41512   0.0339  705.  594.   -21.53946
  81600   32.64    -21.41549   0.0306  704.  536.   -21.54310
  81800   32.72    -21.41589   0.0367  704.  643.   -21.54496
  82000   32.80    -21.41629   0.0363  704.  636.   -21.54601
  82200   32.88    -21.41667   0.0211  703.  371.   -21.54711
  82400   32.96    -21.41706   0.0290  702.  509.   -21.55073
  82600   33.04    -21.41744   0.0301  702.  528.   -21.51691
  82800   33.12    -21.41777   0.0534  702.  937.   -21.51033
  83000   33.20    -21.41809   0.0262  702.  459.   -21.51337
  83200   33.28    -21.41841   0.0397  702.  697.   -21.51677
  83400   33.36    -21.41876   0.0351  702.  615.   -21.52298
  83600   33.44    -21.41909   0.0326  702.  571.   -21.52619
  83800   33.52    -21.41944   0.0293  702.  513.   -21.52950
  84000   33.60    -21.41976   0.0259  701.  455.   -21.52978
  84200   33.68    -21.42009   0.0293  701.  515.   -21.53336
  84400   33.76    -21.42044   0.0309  700.  542.   -21.53426
  84600   33.84    -21.42079   0.0243  700.  426.   -21.53676
  84800   33.92    -21.42113   0.0353  699.  618.   -21.53880
  85000   34.00    -21.42147   0.0233  699.  408.   -21.53984
block <Epot> / <T> :     -21.56602  617.     drift: -0.55D-01   Tbath : 300.
  85200   34.08    -21.42176   0.0579  698. 1015.   -21.49878
  85400   34.16    -21.42208   0.0525  699.  921.   -21.50473
  85600   34.24    -21.42239   0.0362  700.  635.   -21.50869
  85800   34.32    -21.42271   0.0406  700.  712.   -21.51398
  86000   34.40    -21.42303   0.0345  700.  605.   -21.51912
  86200   34.48    -21.42333   0.0369  700.  646.   -21.52296
  86400   34.56    -21.42366   0.0351  700.  616.   -21.52834
  86600   34.64    -21.42399   0.0281  700.  493.   -21.52979
  86800   34.72    -21.42429   0.0257  699.  451.   -21.53014
  87000   34.80    -21.42459   0.0393  698.  689.   -21.53289
  87200   34.88    -21.42493   0.0358  698.  629.   -21.53570
  87400   34.96    -21.42525   0.0223  698.  392.   -21.53764
  87600   35.04    -21.42556   0.0378  697.  664.   -21.50355
  87800   35.12    -21.42582   0.0498  697.  873.   -21.49754
  88000   35.20    -21.42610   0.0629  698. 1104.   -21.50441
  88200   35.28    -21.42640   0.0490  698.  860.   -21.50896
  88400   35.36    -21.42668   0.0346  698.  606.   -21.51220
  88600   35.44    -21.42694   0.0330  698.  579.   -21.51531
  88800   35.52    -21.42721   0.0281  697.  493.   -21.51824
  89000   35.60    -21.42749   0.0338  697.  594.   -21.51971
  89200   35.68    -21.42780   0.0569  697.  998.   -21.52508
  89400   35.76    -21.42811   0.0304  697.  532.   -21.52882
  89600   35.84    -21.42841   0.0315  697.  552.   -21.53265
  89800   35.92    -21.42870   0.0317  696.  556.   -21.53395
  90000   36.00    -21.42901   0.0205  696.  360.   -21.53548
block <Epot> / <T> :     -21.55724  651.     drift:  0.38D-02   Tbath : 300.
  90200   36.08    -21.42925   0.0464  696.  814.   -21.49241
  90400   36.16    -21.42949   0.0395  696.  693.   -21.49673
  90600   36.24    -21.42974   0.0574  696. 1008.   -21.50041
  90800   36.32    -21.43002   0.0519  696.  911.   -21.50721
  91000   36.40    -21.43028   0.0284  696.  499.   -21.51083
  91200   36.48    -21.43051   0.0389  696.  682.   -21.51248
  91400   36.56    -21.43077   0.0261  696.  458.   -21.51604
  91600   36.64    -21.43102   0.0246  695.  432.   -21.51755
  91800   36.72    -21.43127   0.0265  695.  465.   -21.51926
  92000   36.80    -21.43151   0.0148  694.  259.   -21.52111
  92200   36.88    -21.43177   0.0318  694.  558.   -21.52218
  92400   36.96    -21.43202   0.0223  693.  391.   -21.52425
  92600   37.04    -21.43226   0.0309  693.  543.   -21.48919
  92800   37.12    -21.43246   0.0611  693. 1072.   -21.48518
  93000   37.20    -21.43270   0.0608  693. 1067.   -21.49038
  93200   37.28    -21.43294   0.0502  694.  881.   -21.49677
  93400   37.36    -21.43317   0.0496  694.  870.   -21.50154
  93600   37.44    -21.43341   0.0353  694.  620.   -21.50507
  93800   37.52    -21.43363   0.0300  694.  526.   -21.50758
  94000   37.60    -21.43387   0.0362  693.  635.   -21.51096
  94200   37.68    -21.43410   0.0309  693.  543.   -21.51456
  94400   37.76    -21.43434   0.0338  693.  592.   -21.51614
  94600   37.84    -21.43457   0.0208  692.  364.   -21.51689
  94800   37.92    -21.43480   0.0331  692.  580.   -21.52051
  95000   38.00    -21.43506   0.0334  692.  585.   -21.52284
block <Epot> / <T> :     -21.54394  614.     drift:  0.10D-01   Tbath : 300.
  95200   38.08    -21.43525   0.0364  691.  638.   -21.47756
  95400   38.16    -21.43546   0.0440  692.  772.   -21.48602
  95600   38.24    -21.43566   0.0419  692.  735.   -21.48877
  95800   38.32    -21.43587   0.0543  692.  952.   -21.49105
  96000   38.40    -21.43607   0.0257  692.  450.   -21.49560
  96200   38.48    -21.43626   0.0320  692.  562.   -21.50062
  96400   38.56    -21.43645   0.0250  692.  439.   -21.50174
  96600   38.64    -21.43666   0.0193  691.  338.   -21.50725
  96800   38.72    -21.43687   0.0308  691.  540.   -21.50676
  97000   38.80    -21.43709   0.0270  691.  474.   -21.51116
  97200   38.88    -21.43731   0.0256  691.  449.   -21.51420
  97400   38.96    -21.43752   0.0181  690.  318.   -21.51354
  97600   39.04    -21.43772   0.0184  690.  322.   -21.48028
  97800   39.12    -21.43787   0.0529  690.  927.   -21.47302
  98000   39.20    -21.43803   0.0311  690.  545.   -21.47762
  98200   39.28    -21.43820   0.0475  690.  834.   -21.48277
  98400   39.36    -21.43837   0.0271  690.  475.   -21.48656
  98600   39.44    -21.43855   0.0312  690.  548.   -21.48908
  98800   39.52    -21.43873   0.0380  690.  667.   -21.49340
  99000   39.60    -21.43892   0.0344  690.  603.   -21.49732
  99200   39.68    -21.43911   0.0284  689.  498.   -21.49983
  99400   39.76    -21.43930   0.0333  689.  585.   -21.50291
  99600   39.84    -21.43950   0.0290  689.  509.   -21.50493
  99800   39.92    -21.43968   0.0192  688.  337.   -21.50718
 100000   40.00    -21.43986   0.0266  688.  467.   -21.50902
block <Epot> / <T> :     -21.53091  610.     drift:  0.12D-01   Tbath : 300.
 100200   40.08    -21.43998   0.0290  687.  509.   -21.46214
 100400   40.16    -21.44009   0.0345  687.  606.   -21.46384
 100600   40.24    -21.44025   0.0501  687.  879.   -21.47034
 100800   40.32    -21.44041   0.0425  688.  746.   -21.47580
 101000   40.40    -21.44056   0.0359  688.  631.   -21.47890
 101200   40.48    -21.44073   0.0532  688.  932.   -21.48372
 101400   40.56    -21.44089   0.0275  688.  483.   -21.48759
 101600   40.64    -21.44104   0.0232  687.  406.   -21.49040
 101800   40.72    -21.44120   0.0272  687.  477.   -21.49182
 102000   40.80    -21.44137   0.0363  687.  637.   -21.49496
 102200   40.88    -21.44153   0.0211  686.  371.   -21.49685
 102400   40.96    -21.44170   0.0458  686.  804.   -21.49990
 102600   41.04    -21.44188   0.0242  686.  425.   -21.46960
 102800   41.12    -21.44201   0.0424  686.  745.   -21.46304
 103000   41.20    -21.44212   0.0612  686. 1074.   -21.46710
 103200   41.28    -21.44225   0.0320  686.  562.   -21.47181
 103400   41.36    -21.44238   0.0472  686.  829.   -21.47422
 103600   41.44    -21.44255   0.0408  687.  717.   -21.47981
 103800   41.52    -21.44269   0.0185  686.  325.   -21.48293
 104000   41.60    -21.44283   0.0248  686.  435.   -21.48676
 104200   41.68    -21.44299   0.0411  686.  721.   -21.48877
 104400   41.76    -21.44314   0.0283  686.  496.   -21.49272
 104600   41.84    -21.44329   0.0196  685.  344.   -21.49416
 104800   41.92    -21.44344   0.0296  685.  518.   -21.49465
 105000   42.00    -21.44359   0.0276  685.  484.   -21.49831
block <Epot> / <T> :     -21.51832  626.     drift:  0.13D-01   Tbath : 300.
 105200   42.08    -21.44371   0.0464  685.  814.   -21.45491
 105400   42.16    -21.44384   0.0679  685. 1192.   -21.46207
 105600   42.24    -21.44399   0.0549  686.  963.   -21.46742
 105800   42.32    -21.44411   0.0418  686.  733.   -21.47136
 106000   42.40    -21.44424   0.0438  686.  768.   -21.47603
 106200   42.48    -21.44438   0.0471  686.  827.   -21.47897
 106400   42.56    -21.44453   0.0388  686.  680.   -21.48336
 106600   42.64    -21.44468   0.0355  686.  622.   -21.48703
 106800   42.72    -21.44482   0.0218  686.  383.   -21.49049
 107000   42.80    -21.44495   0.0270  685.  473.   -21.49097
 107200   42.88    -21.44510   0.0317  685.  555.   -21.49342
 107400   42.96    -21.44524   0.0227  684.  399.   -21.49500
 107600   43.04    -21.44537   0.0214  684.  375.   -21.46319
 107800   43.12    -21.44547   0.0649  684. 1138.   -21.45420
 108000   43.20    -21.44559   0.0391  685.  686.   -21.46015
 108200   43.28    -21.44569   0.0339  685.  594.   -21.46462
 108400   43.36    -21.44578   0.0291  684.  511.   -21.46641
 108600   43.44    -21.44589   0.0452  684.  793.   -21.47066
 108800   43.52    -21.44604   0.0447  685.  784.   -21.47600
 109000   43.60    -21.44617   0.0316  685.  555.   -21.47888
 109200   43.68    -21.44630   0.0342  685.  599.   -21.48187
 109400   43.76    -21.44641   0.0277  684.  485.   -21.48436
 109600   43.84    -21.44652   0.0142  683.  249.   -21.48549
 109800   43.92    -21.44662   0.0219  683.  385.   -21.48558
 110000   44.00    -21.44674   0.0314  682.  551.   -21.48748
block <Epot> / <T> :     -21.51287  633.     drift:  0.11D-01   Tbath : 300.
 110200   44.08    -21.44683   0.0335  682.  587.   -21.44329
 110400   44.16    -21.44690   0.0474  682.  831.   -21.44765
 110600   44.24    -21.44700   0.0464  683.  814.   -21.45294
 110800   44.32    -21.44709   0.0447  683.  784.   -21.45776
 111000   44.40    -21.44718   0.0294  683.  516.   -21.46067
 111200   44.48    -21.44726   0.0199  682.  348.   -21.46252
 111400   44.56    -21.44733   0.0271  682.  476.   -21.46435
 111600   44.64    -21.44741   0.0228  681.  399.   -21.46482
 111800   44.72    -21.44749   0.0262  681.  460.   -21.46787
 112000   44.80    -21.44758   0.0284  681.  499.   -21.46928
 112200   44.88    -21.44767   0.0300  680.  526.   -21.47114
 112400   44.96    -21.44776   0.0201  680.  352.   -21.47329
 112600   45.04    -21.44784   0.0287  680.  503.   -21.44100
 112800   45.12    -21.44789   0.0581  680. 1019.   -21.43286
 113000   45.20    -21.44796   0.0393  680.  689.   -21.43856
 113200   45.28    -21.44804   0.0526  681.  923.   -21.44327
 113400   45.36    -21.44812   0.0492  681.  863.   -21.44846
 113600   45.44    -21.44823   0.0419  681.  735.   -21.45752
 113800   45.52    -21.44831   0.0242  681.  424.   -21.46131
 114000   45.60    -21.44839   0.0349  681.  612.   -21.46412
 114200   45.68    -21.44850   0.0539  681.  946.   -21.47038
 114400   45.76    -21.44860   0.0282  681.  495.   -21.47167
 114600   45.84    -21.44869   0.0266  681.  468.   -21.47553
 114800   45.92    -21.44880   0.0494  681.  867.   -21.47678
 115000   46.00    -21.44892   0.0258  681.  453.   -21.48137
block <Epot> / <T> :     -21.49675  641.     drift:  0.11D-01   Tbath : 300.
 115200   46.08    -21.44898   0.0337  680.  591.   -21.43951
 115400   46.16    -21.44903   0.0356  680.  624.   -21.44197
 115600   46.24    -21.44907   0.0331  680.  581.   -21.44362
 115800   46.32    -21.44913   0.0554  680.  972.   -21.44827
 116000   46.40    -21.44922   0.0359  680.  630.   -21.45163
 116200   46.48    -21.44927   0.0360  680.  631.   -21.45491
 116400   46.56    -21.44936   0.0390  680.  684.   -21.45975
 116600   46.64    -21.44945   0.0452  680.  793.   -21.45975
 116800   46.72    -21.44954   0.0321  680.  562.   -21.46619
 117000   46.80    -21.44962   0.0235  680.  412.   -21.46748
 117200   46.88    -21.44971   0.0318  680.  557.   -21.47227
 117400   46.96    -21.44980   0.0263  679.  461.   -21.47545
 117600   47.04    -21.44990   0.0249  679.  436.   -21.44782
 117800   47.12    -21.44994   0.0332  679.  583.   -21.43704
 118000   47.20    -21.45000   0.0393  680.  690.   -21.44147
 118200   47.28    -21.45007   0.0397  680.  696.   -21.44717
 118400   47.36    -21.45013   0.0472  680.  829.   -21.45016
 118600   47.44    -21.45022   0.0378  680.  663.   -21.45646
 118800   47.52    -21.45028   0.0465  680.  816.   -21.45902
 119000   47.60    -21.45036   0.0382  680.  671.   -21.46228
 119200   47.68    -21.45044   0.0314  679.  551.   -21.46338
 119400   47.76    -21.45051   0.0220  679.  386.   -21.46650
 119600   47.84    -21.45057   0.0218  679.  382.   -21.46647
 119800   47.92    -21.45064   0.0296  678.  520.   -21.46944
 120000   48.00    -21.45071   0.0201  678.  353.   -21.47175
block <Epot> / <T> :     -21.49190  613.     drift:  0.95D-02   Tbath : 300.
 120200   48.08    -21.45075   0.0320  677.  561.   -21.42643
 120400   48.16    -21.45079   0.0600  678. 1052.   -21.43110
 120600   48.24    -21.45085   0.0487  678.  854.   -21.43840
 120800   48.32    -21.45089   0.0401  678.  703.   -21.44204
 121000   48.40    -21.45095   0.0266  678.  467.   -21.44455
 121200   48.48    -21.45099   0.0307  678.  538.   -21.44758
 121400   48.56    -21.45104   0.0281  678.  493.   -21.45210
 121600   48.64    -21.45110   0.0199  678.  350.   -21.45515
 121800   48.72    -21.45115   0.0329  677.  577.   -21.45639
 122000   48.80    -21.45121   0.0262  677.  459.   -21.45820
 122200   48.88    -21.45126   0.0249  677.  436.   -21.46090
 122400   48.96    -21.45132   0.0269  676.  471.   -21.46008
 122600   49.04    -21.45136   0.0281  676.  493.   -21.43144
 122800   49.12    -21.45138   0.0424  676.  743.   -21.41995
 123000   49.20    -21.45140   0.0377  676.  662.   -21.42326
 123200   49.28    -21.45142   0.0437  676.  766.   -21.42768
 123400   49.36    -21.45146   0.0511  676.  896.   -21.43231
 123600   49.44    -21.45149   0.0445  676.  781.   -21.43528
 123800   49.52    -21.45152   0.0331  676.  581.   -21.43798
 124000   49.60    -21.45155   0.0422  676.  741.   -21.44060
 124200   49.68    -21.45160   0.0234  676.  411.   -21.44397
 124400   49.76    -21.45163   0.0430  675.  754.   -21.44604
 124600   49.84    -21.45170   0.0418  676.  734.   -21.45028
 124800   49.92    -21.45174   0.0360  675.  632.   -21.45283
 average properties 
 Epot               :  -21.4517972699147     
 Epot (accurate SCC):  -21.4519600445710     
 Ekin               :  3.847828132478996E-002
 Etot               :  -21.4133189885900     
 T                  :   675.027316240186     
 thermostating problem
 normal exit of md()

------------------------------------------------------------------------
 * finished run on 2021/03/15 at 00:22:07.045     
------------------------------------------------------------------------
 total:
 * wall-time:     0 d,  0 h, 24 min, 58.755 sec
 *  cpu-time:     0 d,  0 h, 24 min, 40.192 sec
 * ratio c/w:     0.988 speedup
 SCF:
 * wall-time:     0 d,  0 h,  0 min,  0.679 sec
 *  cpu-time:     0 d,  0 h,  0 min,  0.028 sec
 * ratio c/w:     0.041 speedup
 MD:
 * wall-time:     0 d,  0 h, 24 min, 56.810 sec
 *  cpu-time:     0 d,  0 h, 24 min, 40.120 sec
 * ratio c/w:     0.989 speedup

