      -----------------------------------------------------------      
     |                   =====================                   |     
     |                           x T B                           |     
     |                   =====================                   |     
     |                         S. Grimme                         |     
     |          Mulliken Center for Theoretical Chemistry        |     
     |                    University of Bonn                     |     
     |                 Version 6.1.4 (SAW190525)                 |     
      -----------------------------------------------------------      

   This program is distributed in the hope that it will be useful,
   but WITHOUT ANY WARRANTY; without even the implied warranty of
   MERCHANTABILITY or FITNESS FOR A PARTICULAR PURPOSE.
   
   FOR NON-COMMERCIAL, ACADEMIA USE ONLY.
   
   Cite this work as:
   S. Grimme, C. Bannwarth, P. Shushkov, J. Comput. Theory Chem., 2017,
   13, 1989-2009. DOI: 10.1021/acs.jctc.7b00118
   C. Bannwarth, S. Ehlert and S. Grimme., J. Comput. Theory Chem., 2019,
   just accepted. DOI: 10.1021/acs.jctc.8b01176
   
   for sTDA-xTB:
   S. Grimme and C. Bannwarth, J. Chem. Phys., 2016, 145, 054103.
   DOI: 10.1063/1.4959605
   
   in the mass-spec context:
   V. Asgeirsson, C. Bauer and S. Grimme, Chem. Sci., 2017, 8, 4879.
   DOI: 10.1039/c7sc00601b
   
   for metadynamics refer to:
   S. Grimme, J. Chem. Theory Comput. Article ASAP, 2019,
   DOI: 10.1021/acs.jctc.9b00143
   
   with help from (in alphabetical order)
   C. Bannwarth, F. Bohle, G. Brandenburg, E. Caldeweyher, M. Checinski,
   S. Dohm, S. Ehlert, S. Ehrlich, F. März, H. Neugebauer, J. Pisarek,
   P. Pracht, P. Shushkov, and S. Spicher.
   
 * started run on 2021/06/02 at 10:00:08.925     

           -------------------------------------------------
          |                Calculation Setup                |
           -------------------------------------------------

          program call               : /groups/kemi/koerstz/opt/xtb/6.1/bin/xtb path_point_3.xyz --gfn2 --acc 0.2 --chrg 0
          hostname                   : node305
          coordinate file            : path_point_3.xyz
          omp threads                :                     1
          number of atoms            :                     9
          number of electrons        :                    36
          charge                     :                     0
          spin                       :                   0.0
          first test random number   :      0.08698650886950


########################################################################
# WARNING! Please study the warnings concerning your input carefully
#  - XTBPATH is not set, using XTBHOME instead
########################################################################

           ------------------------------------------------- 
          |                 G F N 2 - x T B                 |
          | Geometry, Frequencies, Noncovalent interactions |
          |            JCTC 2018 parametrisation            |
           ------------------------------------------------- 
             k(s)              :                1.8500
             k(p)              :                2.2300
             k(d)              :                2.2300
             k(f)              :                2.0000
             kEN (H0ij)        :               -2.0000
             D4 a1             :                0.5200
             D4 a2             :                5.0000
             D4 s6             :                1.0000
             D4 s8             :                2.7000
             D4 s9             :                5.0000
             alphaj            :                2.0000

  Z AO/shell   Hii/eV     exponent
  1     Wed Apr 25 08:07:45 CEST 2018   EN: 2.200 GM2: 0.406  GM3: 0.0800  RAES: 1.40
     1s    -10.707211    1.230000
  6     Wed Apr 25 08:07:45 CEST 2018   EN: 2.550 GM2: 0.538  GM3: 0.1500  RAES: 3.00
     2s    -13.970922    2.096432
     2p    -10.063292    1.800000
  7     Wed Apr 25 08:07:45 CEST 2018   EN: 3.040 GM2: 0.461  GM3:-0.0640  RAES: 1.90
     2s    -16.686243    2.339881
     2p    -12.523956    2.014332
  8     Wed Apr 25 08:07:45 CEST 2018   EN: 3.440 GM2: 0.452  GM3:-0.0517  RAES: 1.80
     2s    -20.229985    2.439742
     2p    -15.503117    2.137023


            Z     q(EN)     CN     RAES       Cart. coordinates
     1  N   5.0   -0.42    2.01    1.90    -0.95330    -0.30868    -2.43494
     2  C   4.0    0.32    3.01    3.02    -0.84132    -1.64232    -0.39931
     3  N   5.0   -0.15    2.02    1.90    -2.90529    -2.07790     1.00459
     4  N   5.0   -0.15    1.00    1.90    -4.96676    -2.61663     1.36199
     5  O   6.0   -0.10    1.00    1.80     5.79784    -2.63572    -0.56045
     6  N   5.0   -0.14    2.01    1.90     3.51473    -2.56531    -0.52811
     7  C   4.0    0.14    3.01    3.02     1.54831    -2.32091     0.80341
     8  H   1.0    0.33    1.00    1.43    -2.67476     0.41351    -2.91222
     9  H   1.0    0.18    0.99    1.43     1.43533    -2.89824     2.76236

           ------------------------------------------------- 
          |        Self-Consistent Charge Iterations        |
           ------------------------------------------------- 
q/qsh data taken from xtbrestart
CAMM data taken from xtbrestart

          ...................................................
          :                      SETUP                      :
          :.................................................:
          :  # basis functions                  30          :
          :  # atomic orbitals                  30          :
          :  # shells                           16          :
          :  # electrons                        36          :
          :  max. iterations                   250          :
          :  Hamiltonian                  GFN2-xTB          :
          :  restarted?                       true          :
          :  GBSA solvation                  false          :
          :  PC potential                    false          :
          :  electronic temp.          300.0000000     K    :
          :  accuracy                    0.2000000          :
          :  -> integral cutoff          0.3198970E+02      :
          :  -> integral neglect         0.2000000E-08      :
          :  -> SCF convergence          0.2000000E-06 Eh   :
          :  -> wf. convergence          0.2000000E-04 e    :
          :  Broyden damping             0.4000000          :
          ...................................................

 iter      E             dE          RMSdq      gap      omega  full diag
   1    -21.0609129 -0.210609E+02  0.931E-01    0.22       0.0  T
   2    -20.7675741  0.293339E+00  0.500E+00    0.47       1.0  T
   3    -21.0238760 -0.256302E+00  0.193E+00    0.24       1.0  T
   4    -21.0721417 -0.482658E-01  0.898E-02    0.21       1.0  T
   5    -21.0721346  0.709035E-05  0.731E-02    0.21       1.0  T
   6    -21.0718648  0.269853E-03  0.158E-01    0.21       1.0  T
   7    -21.0721860 -0.321179E-03  0.153E-02    0.21       2.2  T
   8    -21.0721878 -0.182906E-05  0.101E-02    0.21       3.3  T
   9    -21.0721887 -0.929783E-06  0.474E-03    0.21       7.0  T
  10    -21.0721883  0.385504E-06  0.709E-03    0.21       4.7  T
  11    -21.0721890 -0.617849E-06  0.185E-03    0.21      18.1  T
  12    -21.0721890 -0.432435E-07  0.200E-04    0.21     167.0  T
  13    -21.0721890  0.151107E-08  0.389E-04    0.21      85.8  T
  14    -21.0721890 -0.169278E-08  0.151E-04    0.21     220.3  T

   *** convergence criteria satisfied after 14 iterations ***

         #    Occupation            Energy/Eh            Energy/eV
      -------------------------------------------------------------
         1        2.0000           -0.7498524             -20.4045
       ...           ...                  ...                  ...
        12        2.0000           -0.5538842             -15.0720
        13        2.0000           -0.5174956             -14.0818
        14        2.0000           -0.5057771             -13.7629
        15        2.0000           -0.5013394             -13.6421
        16        2.0000           -0.4304827             -11.7140
        17        2.0000           -0.4286108             -11.6631
        18        1.9667           -0.3613956              -9.8341 (HOMO)
        19        0.0333           -0.3536466              -9.6232 (LUMO)
        20                         -0.3377271              -9.1900
        21                         -0.2845563              -7.7432
        22                         -0.1902128              -5.1760
        23                          0.0193105               0.5255
       ...                                ...                  ...
        30                          0.8127935              22.1172
      -------------------------------------------------------------
                  HL-Gap            0.0077490 Eh            0.2109 eV
             Fermi-level           -0.3575211 Eh           -9.7286 eV

 SCC (total)                   0 d,  0 h,  0 min,  0.008 sec
 SCC setup                      ...        0 min,  0.000 sec (  1.643%)
 Dispersion                     ...        0 min,  0.000 sec (  0.776%)
 integral evaluation            ...        0 min,  0.001 sec ( 13.578%)
 zeroth order Hamiltonian       ...        0 min,  0.000 sec (  0.443%)
 iterations                     ...        0 min,  0.004 sec ( 56.454%)
 molecular gradient             ...        0 min,  0.002 sec ( 24.336%)
 printout                       ...        0 min,  0.000 sec (  2.313%)

         :::::::::::::::::::::::::::::::::::::::::::::::::::::
         ::                     SUMMARY                     ::
         :::::::::::::::::::::::::::::::::::::::::::::::::::::
         :: total energy              -20.830389305490 Eh   ::
         :: gradient norm               0.021783770092 Eh/α ::
         :: HOMO-LUMO gap               0.210860201603 eV   ::
         ::.................................................::
         :: SCC energy                -21.072188995122 Eh   ::
         :: -> isotropic ES             0.025818390546 Eh   ::
         :: -> anisotropic ES           0.004282309707 Eh   ::
         :: -> anisotropic XC           0.024572073380 Eh   ::
         :: -> dispersion              -0.005505140065 Eh   ::
         :: repulsion energy            0.241798781747 Eh   ::
         :: add. restraining            0.000000000000 Eh   ::
         :::::::::::::::::::::::::::::::::::::::::::::::::::::

           -------------------------------------------------
          |                Property Printout                |
           -------------------------------------------------

    * Orbital Energies and Occupations

         #    Occupation            Energy/Eh            Energy/eV
      -------------------------------------------------------------
         1        2.0000           -0.7498524             -20.4045
       ...           ...                  ...                  ...
         6        2.0000           -0.6321330             -17.2012
         7        2.0000           -0.6094214             -16.5832
         8        2.0000           -0.6062448             -16.4968
         9        2.0000           -0.5942179             -16.1695
        10        2.0000           -0.5874393             -15.9850
        11        2.0000           -0.5698683             -15.5069
        12        2.0000           -0.5538842             -15.0720
        13        2.0000           -0.5174956             -14.0818
        14        2.0000           -0.5057771             -13.7629
        15        2.0000           -0.5013394             -13.6421
        16        2.0000           -0.4304827             -11.7140
        17        2.0000           -0.4286108             -11.6631
        18        1.9667           -0.3613956              -9.8341 (HOMO)
        19        0.0333           -0.3536466              -9.6232 (LUMO)
        20                         -0.3377271              -9.1900
        21                         -0.2845563              -7.7432
        22                         -0.1902128              -5.1760
        23                          0.0193105               0.5255
        24                          0.0560874               1.5262
        25                          0.1676291               4.5614
        26                          0.1806980               4.9170
        27                          0.3157934               8.5932
        28                          0.4527335              12.3195
        29                          0.6740812              18.3427
        30                          0.8127935              22.1172
      -------------------------------------------------------------
                  HL-Gap            0.0077490 Eh            0.2109 eV
             Fermi-level           -0.3575211 Eh           -9.7286 eV

   #   Z        covCN         q      C6AA      α(0)
   1   7 N      1.787    -0.312    28.907     7.963
   2   6 C      2.815     0.146    24.813     8.162
   3   7 N      1.914     0.120    19.814     6.600
   4   7 N      0.985    -0.104    22.910     6.884
   5   8 O      0.924    -0.257    18.991     5.844
   6   7 N      1.845     0.194    18.606     6.393
   7   6 C      2.831    -0.029    28.726     8.783
   8   1 H      0.860     0.157     1.356     1.824
   9   1 H      0.925     0.085     1.929     2.172

 Mol. C6AA /au·bohr⁶  :       1304.207905
 Mol. C8AA /au·bohr⁸  :      29811.563160
 Mol. α(0) /au        :         54.624052


Wiberg/Mayer (AO) data.
largest (>0.10) Wiberg bond orders for each atom
          total WBO             WBO to atom ...
     1  N   3.121        C    2 1.537    H    8 0.943    N    4 0.159    N    6 0.146    O    5 0.140    N    3 0.128
     2  C   3.938        N    1 1.537    N    3 1.134    C    7 1.049    N    4 0.125
     3  N   3.695        N    4 2.248    C    2 1.134    N    1 0.128
     4  N   2.784        N    3 2.248    N    6 0.187    N    1 0.159    C    2 0.125
     5  O   2.036        N    6 1.507    C    7 0.258    N    1 0.140
     6  N   3.602        C    7 1.627    O    5 1.507    N    4 0.187    N    1 0.146
     7  C   3.948        N    6 1.627    C    2 1.049    H    9 0.906    O    5 0.258
     8  H   0.975        N    1 0.943
     9  H   0.989        C    7 0.906

molecular dipole:
                 x           y           z       tot (Debye)
 q only:       -0.806      -0.055       0.475
   full:       -1.003      -0.052       0.734       3.162
molecular quadrupole (traceless):
                xx          xy          yy          xz          yz          zz
 q only:       -6.877       1.847       3.597       2.511      -1.421       3.280
  q+dip:       -9.118       0.998       4.849       5.251      -2.252       4.269
   full:      -10.267       0.852       6.004       5.867      -2.063       4.264


           -------------------------------------------------
          | TOTAL ENERGY              -20.830389305490 Eh   |
          | GRADIENT NORM               0.021783770092 Eh/α |
          | HOMO-LUMO GAP               0.210860201603 eV   |
           -------------------------------------------------

------------------------------------------------------------------------
 * finished run on 2021/06/02 at 10:00:08.942     
------------------------------------------------------------------------
 total:
 * wall-time:     0 d,  0 h,  0 min,  0.016 sec
 *  cpu-time:     0 d,  0 h,  0 min,  0.015 sec
 * ratio c/w:     0.987 speedup
 SCF:
 * wall-time:     0 d,  0 h,  0 min,  0.008 sec
 *  cpu-time:     0 d,  0 h,  0 min,  0.008 sec
 * ratio c/w:     1.000 speedup

