 Entering Gaussian System, Link 0=/software/kemi/g16/avx2/g16/g16
 Initial command:
 /software/kemi/g16/avx2/g16/l1.exe "/scratch/23935644/Gau-28020.inp" -scrdir="/scratch/23935644/"
 Entering Link 1 = /software/kemi/g16/avx2/g16/l1.exe PID=     28021.
  
 Copyright (c) 1988,1990,1992,1993,1995,1998,2003,2009,2016,
            Gaussian, Inc.  All Rights Reserved.
  
 This is part of the Gaussian(R) 16 program.  It is based on
 the Gaussian(R) 09 system (copyright 2009, Gaussian, Inc.),
 the Gaussian(R) 03 system (copyright 2003, Gaussian, Inc.),
 the Gaussian(R) 98 system (copyright 1998, Gaussian, Inc.),
 the Gaussian(R) 94 system (copyright 1995, Gaussian, Inc.),
 the Gaussian 92(TM) system (copyright 1992, Gaussian, Inc.),
 the Gaussian 90(TM) system (copyright 1990, Gaussian, Inc.),
 the Gaussian 88(TM) system (copyright 1988, Gaussian, Inc.),
 the Gaussian 86(TM) system (copyright 1986, Carnegie Mellon
 University), and the Gaussian 82(TM) system (copyright 1983,
 Carnegie Mellon University). Gaussian is a federally registered
 trademark of Gaussian, Inc.
  
 This software contains proprietary and confidential information,
 including trade secrets, belonging to Gaussian, Inc.
  
 This software is provided under written license and may be
 used, copied, transmitted, or stored only in accord with that
 written license.
  
 The following legend is applicable only to US Government
 contracts under FAR:
  
                    RESTRICTED RIGHTS LEGEND
  
 Use, reproduction and disclosure by the US Government is
 subject to restrictions as set forth in subparagraphs (a)
 and (c) of the Commercial Computer Software - Restricted
 Rights clause in FAR 52.227-19.
  
 Gaussian, Inc.
 340 Quinnipiac St., Bldg. 40, Wallingford CT 06492
  
  
 ---------------------------------------------------------------
 Warning -- This program may not be used in any manner that
 competes with the business of Gaussian, Inc. or will provide
 assistance to any competitor of Gaussian, Inc.  The licensee
 of this program is prohibited from giving any competitor of
 Gaussian, Inc. access to this program.  By using this program,
 the user acknowledges that Gaussian, Inc. is engaged in the
 business of creating and licensing software in the field of
 computational chemistry and represents and warrants to the
 licensee that it is not a competitor of Gaussian, Inc. and that
 it will not use this program in any manner prohibited above.
 ---------------------------------------------------------------
  

 Cite this work as:
 Gaussian 16, Revision A.03,
 M. J. Frisch, G. W. Trucks, H. B. Schlegel, G. E. Scuseria, 
 M. A. Robb, J. R. Cheeseman, G. Scalmani, V. Barone, 
 G. A. Petersson, H. Nakatsuji, X. Li, M. Caricato, A. V. Marenich, 
 J. Bloino, B. G. Janesko, R. Gomperts, B. Mennucci, H. P. Hratchian, 
 J. V. Ortiz, A. F. Izmaylov, J. L. Sonnenberg, D. Williams-Young, 
 F. Ding, F. Lipparini, F. Egidi, J. Goings, B. Peng, A. Petrone, 
 T. Henderson, D. Ranasinghe, V. G. Zakrzewski, J. Gao, N. Rega, 
 G. Zheng, W. Liang, M. Hada, M. Ehara, K. Toyota, R. Fukuda, 
 J. Hasegawa, M. Ishida, T. Nakajima, Y. Honda, O. Kitao, H. Nakai, 
 T. Vreven, K. Throssell, J. A. Montgomery, Jr., J. E. Peralta, 
 F. Ogliaro, M. J. Bearpark, J. J. Heyd, E. N. Brothers, K. N. Kudin, 
 V. N. Staroverov, T. A. Keith, R. Kobayashi, J. Normand, 
 K. Raghavachari, A. P. Rendell, J. C. Burant, S. S. Iyengar, 
 J. Tomasi, M. Cossi, J. M. Millam, M. Klene, C. Adamo, R. Cammi, 
 J. W. Ochterski, R. L. Martin, K. Morokuma, O. Farkas, 
 J. B. Foresman, and D. J. Fox, Gaussian, Inc., Wallingford CT, 2016.
 
 ******************************************
 Gaussian 16:  ES64L-G16RevA.03 25-Dec-2016
                23-Jun-2021 
 ******************************************
 %nprocshared=4
 Will use up to    4 processors via shared memory.
 %mem=8GB
 -----------------------------------------------------------------
 #opt=(calcall, ts, noeigen, nomicro, maxstep=15) UwB97XD/Def2TZVP
 -----------------------------------------------------------------
 1/5=1,8=15,10=4,11=1,18=20,26=3,38=1/1,3;
 2/9=110,12=2,17=6,18=5,40=1/2;
 3/5=44,7=101,11=2,25=1,30=1,71=2,74=-58,116=2,140=1/1,2,3;
 4//1;
 5/5=2,38=5/2;
 8/6=4,10=90,11=11/1;
 11/6=1,8=1,9=11,15=111,16=1/1,2,10;
 10/6=1/2;
 6/7=2,8=2,9=2,10=2,18=1,28=1/1;
 7/10=1,25=1/1,2,3,16;
 1/5=1,8=15,10=4,11=1,18=20,26=3/3(3);
 2/9=110/2;
 7/8=1,9=1,25=1,44=-1/16;
 99//99;
 2/9=110/2;
 3/5=44,7=101,11=2,25=1,30=1,71=2,74=-58,116=2,140=1/1,2,3;
 4/5=5,16=3,69=1/1;
 5/5=2,38=5/2;
 8/6=4,10=90,11=11/1;
 11/6=1,8=1,9=11,15=111,16=1/1,2,10;
 10/6=1/2;
 7/10=1,25=1/1,2,3,16;
 1/5=1,8=15,10=4,11=1,18=20,26=3/3(-8);
 2/9=110/2;
 6/7=2,8=2,9=2,10=2,18=1,19=2,28=1/1;
 7/8=1,9=1,25=1,44=-1/16;
 99//99;
 ---------------
 something title
 ---------------
 Symbolic Z-matrix:
 Charge =  0 Multiplicity = 1
 N                    -0.60972   1.86276  -0.01656 
 C                     0.05625   0.88677  -0.11504 
 N                    -2.35192  -0.58947   0.09671 
 N                    -3.3484   -1.02676   0.02131 
 O                     2.97791  -0.93657   0.08588 
 N                     2.25842   0.04274   0.10391 
 C                     0.80439  -0.22675  -0.19979 
 H                    -1.06601   2.69039   0.37234 
 H                     0.4402   -1.18287  -0.60801 
 
 Add virtual bond connecting atoms N3         and C2         Dist= 5.35D+00.
 Add virtual bond connecting atoms N3         and H9         Dist= 5.56D+00.

 GradGradGradGradGradGradGradGradGradGradGradGradGradGradGradGradGradGrad
 Berny optimization.
 Initialization pass.
                           ----------------------------
                           !    Initial Parameters    !
                           ! (Angstroms and Degrees)  !
 --------------------------                            --------------------------
 ! Name  Definition              Value          Derivative Info.                !
 --------------------------------------------------------------------------------
 ! R1    R(1,2)                  1.1857         calculate D2E/DX2 analytically  !
 ! R2    R(1,8)                  1.022          calculate D2E/DX2 analytically  !
 ! R3    R(2,3)                  2.8326         calculate D2E/DX2 analytically  !
 ! R4    R(2,7)                  1.3442         calculate D2E/DX2 analytically  !
 ! R5    R(3,4)                  1.0908         calculate D2E/DX2 analytically  !
 ! R6    R(3,9)                  2.9402         calculate D2E/DX2 analytically  !
 ! R7    R(5,6)                  1.2153         calculate D2E/DX2 analytically  !
 ! R8    R(6,7)                  1.5097         calculate D2E/DX2 analytically  !
 ! R9    R(7,9)                  1.1016         calculate D2E/DX2 analytically  !
 ! A1    A(2,1,8)              161.6275         calculate D2E/DX2 analytically  !
 ! A2    A(1,2,3)               86.8623         calculate D2E/DX2 analytically  !
 ! A3    A(3,2,7)               92.646          calculate D2E/DX2 analytically  !
 ! A4    A(2,3,9)               43.9378         calculate D2E/DX2 analytically  !
 ! A5    A(4,3,9)              140.3573         calculate D2E/DX2 analytically  !
 ! A6    A(5,6,7)              115.0474         calculate D2E/DX2 analytically  !
 ! A7    A(2,7,6)              112.0556         calculate D2E/DX2 analytically  !
 ! A8    A(2,7,9)              123.9437         calculate D2E/DX2 analytically  !
 ! A9    A(6,7,9)              123.2245         calculate D2E/DX2 analytically  !
 ! A10   A(3,9,7)               92.8639         calculate D2E/DX2 analytically  !
 ! A11   L(1,2,7,3,-1)         179.5083         calculate D2E/DX2 analytically  !
 ! A12   L(2,3,4,9,-1)         184.2951         calculate D2E/DX2 analytically  !
 ! A13   L(1,2,7,3,-2)         181.1188         calculate D2E/DX2 analytically  !
 ! A14   L(2,3,4,9,-2)         195.8269         calculate D2E/DX2 analytically  !
 ! D1    D(8,1,2,3)            102.1004         calculate D2E/DX2 analytically  !
 ! D2    D(8,1,7,6)            -60.6343         calculate D2E/DX2 analytically  !
 ! D3    D(8,1,7,9)            128.5774         calculate D2E/DX2 analytically  !
 ! D4    D(1,2,3,9)            168.9678         calculate D2E/DX2 analytically  !
 ! D5    D(7,2,3,9)            -12.151          calculate D2E/DX2 analytically  !
 ! D6    D(3,2,7,6)           -161.7987         calculate D2E/DX2 analytically  !
 ! D7    D(3,2,7,9)             28.0285         calculate D2E/DX2 analytically  !
 ! D8    D(2,3,9,7)             14.8859         calculate D2E/DX2 analytically  !
 ! D9    D(4,3,9,7)            179.0591         calculate D2E/DX2 analytically  !
 ! D10   D(5,6,7,2)            177.6896         calculate D2E/DX2 analytically  !
 ! D11   D(5,6,7,9)            -12.0552         calculate D2E/DX2 analytically  !
 ! D12   D(2,7,9,3)            -26.923          calculate D2E/DX2 analytically  !
 ! D13   D(6,7,9,3)            163.9773         calculate D2E/DX2 analytically  !
 --------------------------------------------------------------------------------
 Trust Radius=1.50D-01 FncErr=1.00D-07 GrdErr=1.00D-06 EigMax=2.50D+02 EigMin=1.00D-04
 Number of steps in this run=     46 maximum allowed number of steps=    100.
 Search for a saddle point of order  1.
 GradGradGradGradGradGradGradGradGradGradGradGradGradGradGradGradGradGrad

                          Input orientation:                          
 ---------------------------------------------------------------------
 Center     Atomic      Atomic             Coordinates (Angstroms)
 Number     Number       Type             X           Y           Z
 ---------------------------------------------------------------------
      1          7           0       -0.609720    1.862760   -0.016560
      2          6           0        0.056250    0.886770   -0.115040
      3          7           0       -2.351920   -0.589470    0.096710
      4          7           0       -3.348400   -1.026760    0.021310
      5          8           0        2.977910   -0.936570    0.085880
      6          7           0        2.258420    0.042740    0.103910
      7          6           0        0.804390   -0.226750   -0.199790
      8          1           0       -1.066010    2.690390    0.372340
      9          1           0        0.440200   -1.182870   -0.608010
 ---------------------------------------------------------------------
                    Distance matrix (angstroms):
                    1          2          3          4          5
     1  N    0.000000
     2  C    1.185652   0.000000
     3  N    3.010236   2.832562   0.000000
     4  N    3.981348   3.907919   1.090816   0.000000
     5  O    4.551684   3.449788   5.341131   6.327282   0.000000
     6  N    3.399002   2.368518   4.653491   5.708510   1.215335
     7  C    2.529690   1.344181   3.190889   4.234922   2.304266
     8  H    1.021966   2.179461   3.533698   4.376040   5.439686
     9  H    3.275364   2.161908   2.940185   3.843684   2.642370
                    6          7          8          9
     6  N    0.000000
     7  C    1.509656   0.000000
     8  H    4.258396   3.512184   0.000000
     9  H    2.305401   1.101564   4.269883   0.000000
 Stoichiometry    C2H2N4O
 Framework group  C1[X(C2H2N4O)]
 Deg. of freedom    21
 Full point group                 C1      NOp   1
 Largest Abelian subgroup         C1      NOp   1
 Largest concise Abelian subgroup C1      NOp   1
                         Standard orientation:                         
 ---------------------------------------------------------------------
 Center     Atomic      Atomic             Coordinates (Angstroms)
 Number     Number       Type             X           Y           Z
 ---------------------------------------------------------------------
      1          7           0        0.609718    1.862761    0.016560
      2          6           0       -0.056251    0.886771    0.115040
      3          7           0        2.351920   -0.589468   -0.096710
      4          7           0        3.348400   -1.026757   -0.021310
      5          8           0       -2.977910   -0.936572   -0.085880
      6          7           0       -2.258421    0.042739   -0.103910
      7          6           0       -0.804390   -0.226750    0.199790
      8          1           0        1.066007    2.690391   -0.372340
      9          1           0       -0.440200   -1.182870    0.608010
 ---------------------------------------------------------------------
 Rotational constants (GHZ):           4.9288172           1.0900489           0.8974846
 Standard basis: def2TZVP (5D, 7F)
 There are   264 symmetry adapted cartesian basis functions of A   symmetry.
 There are   229 symmetry adapted basis functions of A   symmetry.
   229 basis functions,   373 primitive gaussians,   264 cartesian basis functions
    25 alpha electrons       25 beta electrons
       nuclear repulsion energy       228.2756005763 Hartrees.
 NAtoms=    9 NActive=    9 NUniq=    9 SFac= 1.00D+00 NAtFMM=   60 NAOKFM=F Big=F
 Integral buffers will be    131072 words long.
 Raffenetti 2 integral format.
 Two-electron integral symmetry is turned on.
 Nuclear repulsion after empirical dispersion term =      228.2731191782 Hartrees.
 One-electron integrals computed using PRISM.
   1 Symmetry operations used in ECPInt.
 ECPInt:  NShTT=    3655 NPrTT=   11788 LenC2=    3439 LenP2D=    8594.
 LDataN:  DoStor=T MaxTD1= 6 Len=  172
 NBasis=   229 RedAO= T EigKep=  8.42D-05  NBF=   229
 NBsUse=   229 1.00D-06 EigRej= -1.00D+00 NBFU=   229
 ExpMin= 9.52D-02 ExpMax= 2.70D+04 ExpMxC= 9.22D+02 IAcc=3 IRadAn=         5 AccDes= 0.00D+00
 Harris functional with IExCor= 4639 and IRadAn=       5 diagonalized for initial guess.
 HarFok:  IExCor= 4639 AccDes= 0.00D+00 IRadAn=         5 IDoV= 1 UseB2=F ITyADJ=14
 ICtDFT=  3500011 ScaDFX=  1.000000  1.000000  1.000000  1.000000
 FoFCou: FMM=F IPFlag=           0 FMFlag=      100000 FMFlg1=           0
         NFxFlg=           0 DoJE=T BraDBF=F KetDBF=T FulRan=T
         wScrn=  0.000000 ICntrl=       500 IOpCl=  0 I1Cent=   200000004 NGrid=           0
         NMat0=    1 NMatS0=      1 NMatT0=    0 NMatD0=    1 NMtDS0=    0 NMtDT0=    0
 Petite list used in FoFCou.
 Initial guess <Sx>= 0.0000 <Sy>= 0.0000 <Sz>= 0.0000 <S**2>=-0.0000 S=-0.0000
 Requested convergence on RMS density matrix=1.00D-08 within 128 cycles.
 Requested convergence on MAX density matrix=1.00D-06.
 Requested convergence on             energy=1.00D-06.
 No special actions if energy rises.
 Integral accuracy reduced to 1.0D-05 until final iterations.
 Initial convergence to 1.0D-05 achieved.  Increase integral accuracy.
 SCF Done:  E(UwB97XD) =  -371.528249327     A.U. after   18 cycles
            NFock= 18  Conv=0.44D-08     -V/T= 2.0048
 <Sx>= 0.0000 <Sy>= 0.0000 <Sz>= 0.0000 <S**2>=-0.0000 S=-0.0000
 <L.S>=  0.00000000000    
 Annihilation of the first spin contaminant:
 S**2 before annihilation    -0.0000,   after     0.0000
 DoSCS=F DFT=T ScalE2(SS,OS)=  1.000000  1.000000
 Range of M.O.s used for correlation:     1   229
 NBasis=   229 NAE=    25 NBE=    25 NFC=     0 NFV=     0
 NROrb=    229 NOA=    25 NOB=    25 NVA=   204 NVB=   204

 **** Warning!!: The largest alpha MO coefficient is  0.20465556D+02


 **** Warning!!: The largest beta MO coefficient is  0.20465556D+02

   1 Symmetry operations used in ECPInt.
 ECPInt:  NShTT=    3655 NPrTT=   11788 LenC2=    3439 LenP2D=    8594.
 LDataN:  DoStor=T MaxTD1= 7 Len=  274
 Symmetrizing basis deriv contribution to polar:
 IMax=3 JMax=2 DiffMx= 0.00D+00
 G2DrvN: will do    10 centers at a time, making    1 passes.
 Calling FoFCou, ICntrl=  3107 FMM=F I1Cent=   0 AccDes= 0.00D+00.
 End of G2Drv F.D. properties file   721 does not exist.
 End of G2Drv F.D. properties file   722 does not exist.
 End of G2Drv F.D. properties file   788 does not exist.
          IDoAtm=111111111
          Differentiating once with respect to electric field.
                with respect to dipole field.
          Differentiating once with respect to nuclear coordinates.
 CalDSu exits because no D1Ps are significant.
          There are    30 degrees of freedom in the 1st order CPHF.  IDoFFX=6 NUNeed=     3.
     27 vectors produced by pass  0 Test12= 3.40D-14 3.33D-09 XBig12= 1.00D+02 4.97D+00.
 AX will form    27 AO Fock derivatives at one time.
     27 vectors produced by pass  1 Test12= 3.40D-14 3.33D-09 XBig12= 2.08D+01 7.58D-01.
     27 vectors produced by pass  2 Test12= 3.40D-14 3.33D-09 XBig12= 1.21D+00 1.67D-01.
     27 vectors produced by pass  3 Test12= 3.40D-14 3.33D-09 XBig12= 2.63D-02 2.73D-02.
     27 vectors produced by pass  4 Test12= 3.40D-14 3.33D-09 XBig12= 4.39D-04 2.15D-03.
     27 vectors produced by pass  5 Test12= 3.40D-14 3.33D-09 XBig12= 5.07D-06 2.83D-04.
     27 vectors produced by pass  6 Test12= 3.40D-14 3.33D-09 XBig12= 4.22D-08 2.10D-05.
     16 vectors produced by pass  7 Test12= 3.40D-14 3.33D-09 XBig12= 2.72D-10 1.70D-06.
      3 vectors produced by pass  8 Test12= 3.40D-14 3.33D-09 XBig12= 1.79D-12 1.38D-07.
      2 vectors produced by pass  9 Test12= 3.40D-14 3.33D-09 XBig12= 1.25D-14 1.58D-08.
 InvSVY:  IOpt=1 It=  1 EMax= 3.55D-15
 Solved reduced A of dimension   210 with    30 vectors.
 Isotropic polarizability for W=    0.000000       59.83 Bohr**3.
 End of Minotr F.D. properties file   721 does not exist.
 End of Minotr F.D. properties file   722 does not exist.
 End of Minotr F.D. properties file   788 does not exist.

 **********************************************************************

            Population analysis using the SCF density.

 **********************************************************************

 Orbital symmetries:
 Alpha Orbitals:
       Occupied  (A) (A) (A) (A) (A) (A) (A) (A) (A) (A) (A) (A)
                 (A) (A) (A) (A) (A) (A) (A) (A) (A) (A) (A) (A)
                 (A)
       Virtual   (A) (A) (A) (A) (A) (A) (A) (A) (A) (A) (A) (A)
                 (A) (A) (A) (A) (A) (A) (A) (A) (A) (A) (A) (A)
                 (A) (A) (A) (A) (A) (A) (A) (A) (A) (A) (A) (A)
                 (A) (A) (A) (A) (A) (A) (A) (A) (A) (A) (A) (A)
                 (A) (A) (A) (A) (A) (A) (A) (A) (A) (A) (A) (A)
                 (A) (A) (A) (A) (A) (A) (A) (A) (A) (A) (A) (A)
                 (A) (A) (A) (A) (A) (A) (A) (A) (A) (A) (A) (A)
                 (A) (A) (A) (A) (A) (A) (A) (A) (A) (A) (A) (A)
                 (A) (A) (A) (A) (A) (A) (A) (A) (A) (A) (A) (A)
                 (A) (A) (A) (A) (A) (A) (A) (A) (A) (A) (A) (A)
                 (A) (A) (A) (A) (A) (A) (A) (A) (A) (A) (A) (A)
                 (A) (A) (A) (A) (A) (A) (A) (A) (A) (A) (A) (A)
                 (A) (A) (A) (A) (A) (A) (A) (A) (A) (A) (A) (A)
                 (A) (A) (A) (A) (A) (A) (A) (A) (A) (A) (A) (A)
                 (A) (A) (A) (A) (A) (A) (A) (A) (A) (A) (A) (A)
                 (A) (A) (A) (A) (A) (A) (A) (A) (A) (A) (A) (A)
                 (A) (A) (A) (A) (A) (A) (A) (A) (A) (A) (A) (A)
 Beta  Orbitals:
       Occupied  (A) (A) (A) (A) (A) (A) (A) (A) (A) (A) (A) (A)
                 (A) (A) (A) (A) (A) (A) (A) (A) (A) (A) (A) (A)
                 (A)
       Virtual   (A) (A) (A) (A) (A) (A) (A) (A) (A) (A) (A) (A)
                 (A) (A) (A) (A) (A) (A) (A) (A) (A) (A) (A) (A)
                 (A) (A) (A) (A) (A) (A) (A) (A) (A) (A) (A) (A)
                 (A) (A) (A) (A) (A) (A) (A) (A) (A) (A) (A) (A)
                 (A) (A) (A) (A) (A) (A) (A) (A) (A) (A) (A) (A)
                 (A) (A) (A) (A) (A) (A) (A) (A) (A) (A) (A) (A)
                 (A) (A) (A) (A) (A) (A) (A) (A) (A) (A) (A) (A)
                 (A) (A) (A) (A) (A) (A) (A) (A) (A) (A) (A) (A)
                 (A) (A) (A) (A) (A) (A) (A) (A) (A) (A) (A) (A)
                 (A) (A) (A) (A) (A) (A) (A) (A) (A) (A) (A) (A)
                 (A) (A) (A) (A) (A) (A) (A) (A) (A) (A) (A) (A)
                 (A) (A) (A) (A) (A) (A) (A) (A) (A) (A) (A) (A)
                 (A) (A) (A) (A) (A) (A) (A) (A) (A) (A) (A) (A)
                 (A) (A) (A) (A) (A) (A) (A) (A) (A) (A) (A) (A)
                 (A) (A) (A) (A) (A) (A) (A) (A) (A) (A) (A) (A)
                 (A) (A) (A) (A) (A) (A) (A) (A) (A) (A) (A) (A)
                 (A) (A) (A) (A) (A) (A) (A) (A) (A) (A) (A) (A)
 The electronic state is 1-A.
 Alpha  occ. eigenvalues --  -19.27752 -14.55031 -14.54799 -14.54582 -14.50079
 Alpha  occ. eigenvalues --  -10.41192 -10.31980  -1.24547  -1.23092  -1.07779
 Alpha  occ. eigenvalues --   -0.90408  -0.77163  -0.72389  -0.66281  -0.60659
 Alpha  occ. eigenvalues --   -0.58025  -0.57205  -0.57121  -0.54170  -0.53061
 Alpha  occ. eigenvalues --   -0.50231  -0.49038  -0.48083  -0.32059  -0.29797
 Alpha virt. eigenvalues --    0.00503   0.01944   0.04179   0.04298   0.08744
 Alpha virt. eigenvalues --    0.12855   0.15815   0.17588   0.22550   0.27786
 Alpha virt. eigenvalues --    0.28134   0.30467   0.32047   0.33393   0.34648
 Alpha virt. eigenvalues --    0.35260   0.36542   0.37363   0.38878   0.41300
 Alpha virt. eigenvalues --    0.42984   0.45135   0.45469   0.49038   0.49259
 Alpha virt. eigenvalues --    0.49822   0.51081   0.52245   0.52718   0.55459
 Alpha virt. eigenvalues --    0.58283   0.59726   0.61264   0.62883   0.66833
 Alpha virt. eigenvalues --    0.67497   0.68846   0.70690   0.73248   0.76998
 Alpha virt. eigenvalues --    0.84616   0.88078   0.88413   0.90140   0.90617
 Alpha virt. eigenvalues --    0.91889   0.96622   0.99198   1.04262   1.07315
 Alpha virt. eigenvalues --    1.15819   1.16562   1.18494   1.21619   1.23082
 Alpha virt. eigenvalues --    1.25526   1.27825   1.29355   1.34325   1.34527
 Alpha virt. eigenvalues --    1.37704   1.40558   1.41438   1.45569   1.46560
 Alpha virt. eigenvalues --    1.49106   1.52014   1.53706   1.55636   1.58228
 Alpha virt. eigenvalues --    1.63892   1.67159   1.70149   1.74731   1.75694
 Alpha virt. eigenvalues --    1.76134   1.82930   1.84320   1.87400   1.93614
 Alpha virt. eigenvalues --    1.99811   2.01420   2.03173   2.06233   2.07652
 Alpha virt. eigenvalues --    2.08985   2.12006   2.14097   2.16004   2.18537
 Alpha virt. eigenvalues --    2.19867   2.27931   2.29747   2.31369   2.34884
 Alpha virt. eigenvalues --    2.36869   2.38327   2.41933   2.51327   2.58379
 Alpha virt. eigenvalues --    2.59262   2.62860   2.65252   2.67974   2.71476
 Alpha virt. eigenvalues --    2.73556   2.79776   2.80377   2.84527   2.86428
 Alpha virt. eigenvalues --    2.88695   2.93761   2.99430   3.01957   3.02577
 Alpha virt. eigenvalues --    3.08499   3.09811   3.12631   3.16050   3.18867
 Alpha virt. eigenvalues --    3.22526   3.31808   3.36284   3.42775   3.51429
 Alpha virt. eigenvalues --    3.53771   3.54881   3.57195   3.58656   3.65709
 Alpha virt. eigenvalues --    3.66254   3.67034   3.67053   3.70817   3.73919
 Alpha virt. eigenvalues --    3.81421   3.93665   3.97269   3.98018   3.99374
 Alpha virt. eigenvalues --    4.02563   4.10871   4.15726   4.15756   4.21433
 Alpha virt. eigenvalues --    4.22647   4.29477   4.34488   4.36328   4.42512
 Alpha virt. eigenvalues --    4.42806   4.49789   4.53909   4.55826   4.55865
 Alpha virt. eigenvalues --    4.56640   4.59177   4.59584   4.62476   4.62994
 Alpha virt. eigenvalues --    4.74528   4.75358   4.79493   4.87880   4.99137
 Alpha virt. eigenvalues --    5.00047   5.00153   5.01209   5.03959   5.07910
 Alpha virt. eigenvalues --    5.08774   5.09706   5.10659   5.16506   5.23908
 Alpha virt. eigenvalues --    5.25900   5.30416   5.37902   5.49645   5.64450
 Alpha virt. eigenvalues --    5.71472   5.74779   5.83791   5.95755   6.28310
 Alpha virt. eigenvalues --    6.35067   6.35929   6.36748   6.37923   6.39927
 Alpha virt. eigenvalues --    6.41285   6.58653   6.65713   6.95563   7.08012
 Alpha virt. eigenvalues --    7.19755   7.46545  22.61677  23.44091  31.35207
 Alpha virt. eigenvalues --   32.09117  32.20548  32.27163  43.94914
  Beta  occ. eigenvalues --  -19.27752 -14.55031 -14.54799 -14.54582 -14.50079
  Beta  occ. eigenvalues --  -10.41192 -10.31980  -1.24547  -1.23092  -1.07779
  Beta  occ. eigenvalues --   -0.90408  -0.77163  -0.72389  -0.66281  -0.60659
  Beta  occ. eigenvalues --   -0.58025  -0.57205  -0.57121  -0.54170  -0.53061
  Beta  occ. eigenvalues --   -0.50231  -0.49038  -0.48083  -0.32059  -0.29797
  Beta virt. eigenvalues --    0.00503   0.01944   0.04179   0.04298   0.08744
  Beta virt. eigenvalues --    0.12855   0.15815   0.17588   0.22550   0.27786
  Beta virt. eigenvalues --    0.28134   0.30467   0.32047   0.33393   0.34648
  Beta virt. eigenvalues --    0.35260   0.36542   0.37363   0.38878   0.41300
  Beta virt. eigenvalues --    0.42984   0.45135   0.45469   0.49038   0.49259
  Beta virt. eigenvalues --    0.49822   0.51081   0.52245   0.52718   0.55459
  Beta virt. eigenvalues --    0.58283   0.59726   0.61264   0.62883   0.66833
  Beta virt. eigenvalues --    0.67497   0.68846   0.70690   0.73248   0.76998
  Beta virt. eigenvalues --    0.84616   0.88078   0.88413   0.90140   0.90617
  Beta virt. eigenvalues --    0.91889   0.96622   0.99198   1.04262   1.07315
  Beta virt. eigenvalues --    1.15819   1.16562   1.18494   1.21619   1.23082
  Beta virt. eigenvalues --    1.25526   1.27825   1.29355   1.34325   1.34527
  Beta virt. eigenvalues --    1.37704   1.40558   1.41438   1.45569   1.46560
  Beta virt. eigenvalues --    1.49106   1.52014   1.53706   1.55636   1.58228
  Beta virt. eigenvalues --    1.63892   1.67159   1.70149   1.74731   1.75694
  Beta virt. eigenvalues --    1.76134   1.82930   1.84320   1.87400   1.93614
  Beta virt. eigenvalues --    1.99811   2.01420   2.03173   2.06233   2.07652
  Beta virt. eigenvalues --    2.08985   2.12006   2.14097   2.16004   2.18537
  Beta virt. eigenvalues --    2.19867   2.27931   2.29747   2.31369   2.34884
  Beta virt. eigenvalues --    2.36869   2.38327   2.41933   2.51327   2.58379
  Beta virt. eigenvalues --    2.59262   2.62860   2.65252   2.67974   2.71476
  Beta virt. eigenvalues --    2.73556   2.79776   2.80377   2.84527   2.86428
  Beta virt. eigenvalues --    2.88695   2.93761   2.99430   3.01957   3.02577
  Beta virt. eigenvalues --    3.08499   3.09811   3.12631   3.16050   3.18867
  Beta virt. eigenvalues --    3.22526   3.31808   3.36284   3.42775   3.51429
  Beta virt. eigenvalues --    3.53771   3.54881   3.57195   3.58656   3.65709
  Beta virt. eigenvalues --    3.66254   3.67034   3.67053   3.70817   3.73919
  Beta virt. eigenvalues --    3.81421   3.93665   3.97269   3.98018   3.99374
  Beta virt. eigenvalues --    4.02563   4.10871   4.15726   4.15756   4.21433
  Beta virt. eigenvalues --    4.22647   4.29477   4.34488   4.36328   4.42512
  Beta virt. eigenvalues --    4.42806   4.49789   4.53909   4.55826   4.55865
  Beta virt. eigenvalues --    4.56640   4.59177   4.59584   4.62476   4.62994
  Beta virt. eigenvalues --    4.74528   4.75358   4.79493   4.87880   4.99137
  Beta virt. eigenvalues --    5.00047   5.00153   5.01209   5.03959   5.07910
  Beta virt. eigenvalues --    5.08774   5.09706   5.10659   5.16506   5.23908
  Beta virt. eigenvalues --    5.25900   5.30416   5.37902   5.49645   5.64450
  Beta virt. eigenvalues --    5.71472   5.74779   5.83791   5.95755   6.28310
  Beta virt. eigenvalues --    6.35067   6.35929   6.36748   6.37923   6.39927
  Beta virt. eigenvalues --    6.41285   6.58653   6.65713   6.95563   7.08012
  Beta virt. eigenvalues --    7.19755   7.46545  22.61677  23.44091  31.35207
  Beta virt. eigenvalues --   32.09117  32.20548  32.27163  43.94914
          Condensed to atoms (all electrons):
               1          2          3          4          5          6
     1  N    6.278239   0.700591  -0.013257  -0.000977   0.000175  -0.007101
     2  C    0.700591   4.817820  -0.023334   0.002353   0.005882  -0.019984
     3  N   -0.013257  -0.023334   6.304820   0.679371   0.000018  -0.000083
     4  N   -0.000977   0.002353   0.679371   6.358168   0.000002  -0.000010
     5  O    0.000175   0.005882   0.000018   0.000002   8.111598   0.237291
     6  N   -0.007101  -0.019984  -0.000083  -0.000010   0.237291   6.476347
     7  C   -0.045120   0.425625   0.014142   0.000581  -0.081271   0.267466
     8  H    0.368541  -0.035301   0.000208  -0.000089   0.000010  -0.000151
     9  H   -0.003986  -0.050869   0.003654   0.000616   0.010120  -0.016822
               7          8          9
     1  N   -0.045120   0.368541  -0.003986
     2  C    0.425625  -0.035301  -0.050869
     3  N    0.014142   0.000208   0.003654
     4  N    0.000581  -0.000089   0.000616
     5  O   -0.081271   0.000010   0.010120
     6  N    0.267466  -0.000151  -0.016822
     7  C    5.180884   0.002233   0.413570
     8  H    0.002233   0.321366  -0.000040
     9  H    0.413570  -0.000040   0.482651
          Atomic-Atomic Spin Densities.
               1          2          3          4          5          6
     1  N    0.000000  -0.000000  -0.000000   0.000000   0.000000   0.000000
     2  C   -0.000000   0.000000  -0.000000   0.000000   0.000000   0.000000
     3  N   -0.000000  -0.000000  -0.000000   0.000000  -0.000000  -0.000000
     4  N    0.000000   0.000000   0.000000  -0.000000  -0.000000   0.000000
     5  O    0.000000   0.000000  -0.000000  -0.000000  -0.000000   0.000000
     6  N    0.000000   0.000000  -0.000000   0.000000   0.000000   0.000000
     7  C    0.000000  -0.000000   0.000000  -0.000000  -0.000000  -0.000000
     8  H    0.000000  -0.000000   0.000000   0.000000   0.000000  -0.000000
     9  H   -0.000000  -0.000000   0.000000  -0.000000  -0.000000  -0.000000
               7          8          9
     1  N    0.000000   0.000000  -0.000000
     2  C   -0.000000  -0.000000  -0.000000
     3  N    0.000000   0.000000   0.000000
     4  N   -0.000000   0.000000  -0.000000
     5  O   -0.000000   0.000000  -0.000000
     6  N   -0.000000  -0.000000  -0.000000
     7  C    0.000000   0.000000   0.000000
     8  H    0.000000   0.000000  -0.000000
     9  H    0.000000  -0.000000   0.000000
 Mulliken charges and spin densities:
               1          2
     1  N   -0.277106   0.000000
     2  C    0.177217  -0.000000
     3  N    0.034461   0.000000
     4  N   -0.040015  -0.000000
     5  O   -0.283825  -0.000000
     6  N    0.063047   0.000000
     7  C   -0.178109   0.000000
     8  H    0.343224   0.000000
     9  H    0.161105   0.000000
 Sum of Mulliken charges =  -0.00000  -0.00000
 Mulliken charges and spin densities with hydrogens summed into heavy atoms:
               1          2
     1  N    0.066118   0.000000
     2  C    0.177217  -0.000000
     3  N    0.034461   0.000000
     4  N   -0.040015  -0.000000
     5  O   -0.283825  -0.000000
     6  N    0.063047   0.000000
     7  C   -0.017004   0.000000
 APT charges:
               1
     1  N   -1.100930
     2  C    1.184788
     3  N    0.017056
     4  N   -0.017060
     5  O   -0.702212
     6  N    0.832438
     7  C   -0.795132
     8  H    0.485204
     9  H    0.095848
 Sum of APT charges =  -0.00000
 APT charges with hydrogens summed into heavy atoms:
               1
     1  N   -0.615726
     2  C    1.184788
     3  N    0.017056
     4  N   -0.017060
     5  O   -0.702212
     6  N    0.832438
     7  C   -0.699283
 Electronic spatial extent (au):  <R**2>=           1115.4954
 Charge=             -0.0000 electrons
 Dipole moment (field-independent basis, Debye):
    X=              4.7553    Y=              2.5622    Z=             -0.1492  Tot=              5.4037
 Quadrupole moment (field-independent basis, Debye-Ang):
   XX=            -49.4575   YY=            -31.4048   ZZ=            -38.5417
   XY=              1.8542   XZ=             -1.6299   YZ=             -2.7119
 Traceless Quadrupole moment (field-independent basis, Debye-Ang):
   XX=             -9.6562   YY=              8.3965   ZZ=              1.2596
   XY=              1.8542   XZ=             -1.6299   YZ=             -2.7119
 Octapole moment (field-independent basis, Debye-Ang**2):
  XXX=             31.0162  YYY=             23.0093  ZZZ=             -1.9142  XYY=             15.2461
  XXY=             14.0994  XXZ=              0.5647  XZZ=              0.0687  YZZ=             -1.6554
  YYZ=             -5.9262  XYZ=             -2.3187
 Hexadecapole moment (field-independent basis, Debye-Ang**3):
 XXXX=          -1210.5363 YYYY=           -195.3394 ZZZZ=            -41.8789 XXXY=              7.6896
 XXXZ=            -11.2186 YYYX=             38.6778 YYYZ=            -20.0850 ZZZX=              0.5297
 ZZZY=             -1.8032 XXYY=           -226.2369 XXZZ=           -177.0934 YYZZ=            -51.3551
 XXYZ=             -1.8872 YYXZ=             -7.4161 ZZXY=              2.8088
 N-N= 2.282731191782D+02 E-N=-1.326255345044D+03  KE= 3.697418863335D+02
  Exact polarizability:  83.339  21.769  62.684   2.460  -1.300  33.473
 Approx polarizability:  94.153  28.221  75.826   3.445  -1.119  38.502
                          Isotropic Fermi Contact Couplings
        Atom                 a.u.       MegaHertz       Gauss      10(-4) cm-1
     1  N(14)             -0.00000      -0.00000      -0.00000      -0.00000
     2  C(13)             -0.00000      -0.00000      -0.00000      -0.00000
     3  N(14)             -0.00000      -0.00000      -0.00000      -0.00000
     4  N(14)             -0.00000      -0.00000      -0.00000      -0.00000
     5  O(17)              0.00000      -0.00000      -0.00000      -0.00000
     6  N(14)             -0.00000      -0.00000      -0.00000      -0.00000
     7  C(13)             -0.00000      -0.00000      -0.00000      -0.00000
     8  H(1)              -0.00000      -0.00000      -0.00000      -0.00000
     9  H(1)              -0.00000      -0.00000      -0.00000      -0.00000
 --------------------------------------------------------
       Center         ----  Spin Dipole Couplings  ----
                      3XX-RR        3YY-RR        3ZZ-RR
 --------------------------------------------------------
     1   Atom       -0.000000      0.000000     -0.000000
     2   Atom        0.000000      0.000000     -0.000000
     3   Atom       -0.000000      0.000000      0.000000
     4   Atom       -0.000000      0.000000      0.000000
     5   Atom        0.000000     -0.000000      0.000000
     6   Atom        0.000000      0.000000     -0.000000
     7   Atom       -0.000000      0.000000     -0.000000
     8   Atom        0.000000     -0.000000      0.000000
     9   Atom       -0.000000     -0.000000      0.000000
 --------------------------------------------------------
                        XY            XZ            YZ
 --------------------------------------------------------
     1   Atom        0.000000     -0.000000     -0.000000
     2   Atom        0.000000      0.000000     -0.000000
     3   Atom       -0.000000      0.000000      0.000000
     4   Atom        0.000000     -0.000000      0.000000
     5   Atom       -0.000000      0.000000      0.000000
     6   Atom        0.000000     -0.000000     -0.000000
     7   Atom        0.000000     -0.000000     -0.000000
     8   Atom       -0.000000      0.000000      0.000000
     9   Atom       -0.000000     -0.000000      0.000000
 --------------------------------------------------------


 ---------------------------------------------------------------------------------
              Anisotropic Spin Dipole Couplings in Principal Axis System
 ---------------------------------------------------------------------------------

       Atom             a.u.   MegaHertz   Gauss  10(-4) cm-1        Axes

              Baa    -0.0000    -0.000    -0.000    -0.000  0.8080 -0.0822  0.5835
     1 N(14)  Bbb    -0.0000    -0.000    -0.000    -0.000 -0.4502  0.5528  0.7013
              Bcc     0.0000     0.000     0.000     0.000  0.3801  0.8293 -0.4096
 
              Baa    -0.0000    -0.000    -0.000    -0.000 -0.2308  0.1710  0.9579
     2 C(13)  Bbb     0.0000     0.000     0.000     0.000  0.8129 -0.5071  0.2864
              Bcc     0.0000     0.000     0.000     0.000  0.5347  0.8447 -0.0220
 
              Baa    -0.0000    -0.000    -0.000    -0.000  0.9792  0.1447 -0.1420
     3 N(14)  Bbb     0.0000     0.000     0.000     0.000  0.1408  0.0186  0.9899
              Bcc     0.0000     0.000     0.000     0.000 -0.1459  0.9893  0.0022
 
              Baa    -0.0000    -0.000    -0.000    -0.000  0.8908 -0.4443  0.0955
     4 N(14)  Bbb     0.0000     0.000     0.000     0.000  0.4486  0.8257 -0.3422
              Bcc     0.0000     0.000     0.000     0.000  0.0732  0.3476  0.9348
 
              Baa    -0.0000     0.000     0.000     0.000  0.3388  0.9378 -0.0761
     5 O(17)  Bbb     0.0000    -0.000    -0.000    -0.000  0.8195 -0.3339 -0.4658
              Bcc     0.0000    -0.000    -0.000    -0.000  0.4622 -0.0954  0.8816
 
              Baa    -0.0000    -0.000    -0.000    -0.000 -0.6541  0.6652 -0.3601
     6 N(14)  Bbb    -0.0000    -0.000    -0.000    -0.000 -0.1722  0.3326  0.9272
              Bcc     0.0000     0.000     0.000     0.000  0.7365  0.6685 -0.1031
 
              Baa    -0.0000    -0.000    -0.000    -0.000  0.7994 -0.5600  0.2178
     7 C(13)  Bbb    -0.0000    -0.000    -0.000    -0.000 -0.0916  0.2447  0.9653
              Bcc     0.0000     0.000     0.000     0.000  0.5938  0.7916 -0.1443
 
              Baa    -0.0000    -0.000    -0.000    -0.000  0.1927  0.8926 -0.4076
     8 H(1)   Bbb     0.0000     0.000     0.000     0.000  0.8926 -0.3320 -0.3050
              Bcc     0.0000     0.000     0.000     0.000  0.4076  0.3051  0.8607
 
              Baa    -0.0000    -0.000    -0.000    -0.000  0.6649  0.7465  0.0253
     9 H(1)   Bbb     0.0000     0.000     0.000     0.000  0.6840 -0.6221  0.3810
              Bcc     0.0000     0.000     0.000     0.000 -0.3001  0.2360  0.9242
 

 ---------------------------------------------------------------------------------

   1 Symmetry operations used in ECPInt.
 ECPInt:  NShTT=    3655 NPrTT=   11788 LenC2=    3439 LenP2D=    8594.
 LDataN:  DoStor=T MaxTD1= 8 Len=  415
 Calling FoFJK, ICntrl=    100127 FMM=F ISym2X=0 I1Cent= 0 IOpClX= 1 NMat=1 NMatS=1 NMatT=0.
 ***** Axes restored to original set *****
 -------------------------------------------------------------------
 Center     Atomic                   Forces (Hartrees/Bohr)
 Number     Number              X              Y              Z
 -------------------------------------------------------------------
      1        7           0.013521475    0.003776866   -0.006241563
      2        6          -0.014919789    0.013649954    0.011327844
      3        7          -0.013349253   -0.008165658   -0.000490916
      4        7           0.007998820    0.003770235    0.000762729
      5        8          -0.019760515    0.019523591   -0.003103282
      6        7          -0.026507273   -0.026702466   -0.005399722
      7        6           0.038635651    0.007370786   -0.001540426
      8        1           0.009587248   -0.024780126   -0.004276135
      9        1           0.004793638    0.011556817    0.008961473
 -------------------------------------------------------------------
 Cartesian Forces:  Max     0.038635651 RMS     0.014699210
 FormGI is forming the generalized inverse of G from B-inverse, IUseBI=4.

 GradGradGradGradGradGradGradGradGradGradGradGradGradGradGradGradGradGrad
 Berny optimization.
 Internal  Forces:  Max     0.047553493 RMS     0.012257725
 Search for a saddle point.
 Step number   1 out of a maximum of   46
 All quantities printed in internal units (Hartrees-Bohrs-Radians)
 Swapping is turned off.
 Second derivative matrix not updated -- analytic derivatives used.
 ITU=  0
     Eigenvalues ---   -0.03392  -0.00070  -0.00030   0.00021   0.00298
     Eigenvalues ---    0.00498   0.00839   0.01436   0.02232   0.04047
     Eigenvalues ---    0.05709   0.07777   0.09985   0.10969   0.30203
     Eigenvalues ---    0.38369   0.43921   0.48845   0.73900   1.04709
     Eigenvalues ---    1.61675
 Eigenvectors required to have negative eigenvalues:
                          A1        D1        D2        A13       A11
   1                   -0.89917  -0.30074  -0.14370  -0.10701   0.09938
                          D3        D7        D12       A2        D6
   1                   -0.08908  -0.08643   0.08526   0.08299  -0.07173
 RFO step:  Lambda0=1.352404286D-03 Lambda=-2.22757437D-02.
 Linear search not attempted -- option 19 set.
 Maximum step size (   0.150) exceeded in Quadratic search.
    -- Step size scaled by   0.263
 Iteration  1 RMS(Cart)=  0.04383203 RMS(Int)=  0.00150260
 Iteration  2 RMS(Cart)=  0.00125133 RMS(Int)=  0.00007642
 Iteration  3 RMS(Cart)=  0.00000099 RMS(Int)=  0.00007642
 Variable       Old X    -DE/DX   Delta X   Delta X   Delta X     New X
                                 (Linear)    (Quad)   (Total)
    R1        2.24056  -0.03115   0.00000  -0.01269  -0.01269   2.22787
    R2        1.93124  -0.02598   0.00000  -0.01562  -0.01562   1.91562
    R3        5.35277   0.00596   0.00000   0.04972   0.04968   5.40245
    R4        2.54013  -0.00977   0.00000   0.00394   0.00388   2.54401
    R5        2.06134  -0.00887   0.00000  -0.00150  -0.00150   2.05985
    R6        5.55614  -0.00042   0.00000   0.01359   0.01366   5.56981
    R7        2.29665  -0.02739   0.00000   0.00608   0.00608   2.30273
    R8        2.85284  -0.04755   0.00000  -0.09599  -0.09599   2.75684
    R9        2.08165  -0.01328   0.00000  -0.00886  -0.00887   2.07278
    A1        2.82093  -0.00899   0.00000   0.04141   0.04140   2.86233
    A2        1.51603   0.00338   0.00000   0.00702   0.00718   1.52322
    A3        1.61698   0.00018   0.00000  -0.00626  -0.00638   1.61060
    A4        0.76686  -0.00408   0.00000  -0.00773  -0.00776   0.75910
    A5        2.44970   0.00233   0.00000  -0.04122  -0.04120   2.40850
    A6        2.00796  -0.01160   0.00000  -0.00064  -0.00064   2.00732
    A7        1.95574   0.00290   0.00000   0.01709   0.01711   1.97285
    A8        2.16322   0.00132   0.00000  -0.01203  -0.01218   2.15104
    A9        2.15067  -0.00401   0.00000  -0.00262  -0.00259   2.14809
   A10        1.62078   0.00360   0.00000   0.01228   0.01212   1.63290
   A11        3.13301   0.00357   0.00000   0.00076   0.00080   3.13381
   A12        3.21656  -0.00175   0.00000  -0.04895  -0.04896   3.16759
   A13        3.16112  -0.00299   0.00000  -0.00529  -0.00531   3.15581
   A14        3.41782  -0.00054   0.00000  -0.05808  -0.05800   3.35982
    D1        1.78199  -0.00499   0.00000  -0.02641  -0.02630   1.75568
    D2       -1.05827   0.00032   0.00000   0.01436   0.01434  -1.04393
    D3        2.24410   0.00154   0.00000   0.00161   0.00152   2.24562
    D4        2.94904  -0.00156   0.00000  -0.01746  -0.01749   2.93155
    D5       -0.21208   0.00143   0.00000  -0.01217  -0.01218  -0.22425
    D6       -2.82392  -0.00106   0.00000   0.04044   0.04035  -2.78357
    D7        0.48919  -0.00196   0.00000   0.02508   0.02493   0.51412
    D8        0.25981  -0.00104   0.00000   0.01681   0.01696   0.27677
    D9        3.12517  -0.00050   0.00000   0.07489   0.07496  -3.08305
   D10        3.10127   0.00177   0.00000   0.01604   0.01596   3.11723
   D11       -0.21040   0.00326   0.00000   0.03017   0.03025  -0.18015
   D12       -0.46989   0.00118   0.00000  -0.02786  -0.02795  -0.49785
   D13        2.86194  -0.00056   0.00000  -0.04660  -0.04662   2.81532
         Item               Value     Threshold  Converged?
 Maximum Force            0.047553     0.000450     NO 
 RMS     Force            0.012258     0.000300     NO 
 Maximum Displacement     0.122685     0.001800     NO 
 RMS     Displacement     0.043881     0.001200     NO 
 Predicted change in Energy=-4.957930D-03
 GradGradGradGradGradGradGradGradGradGradGradGradGradGradGradGradGradGrad

                          Input orientation:                          
 ---------------------------------------------------------------------
 Center     Atomic      Atomic             Coordinates (Angstroms)
 Number     Number       Type             X           Y           Z
 ---------------------------------------------------------------------
      1          7           0       -0.589282    1.883716   -0.008381
      2          6           0        0.071090    0.912347   -0.109600
      3          7           0       -2.351166   -0.591361    0.101513
      4          7           0       -3.317756   -1.091682    0.042086
      5          8           0        2.925000   -0.974906    0.083580
      6          7           0        2.220301    0.017999    0.132633
      7          6           0        0.818504   -0.203240   -0.205436
      8          1           0       -1.063750    2.707018    0.344665
      9          1           0        0.448179   -1.139651   -0.640309
 ---------------------------------------------------------------------
                    Distance matrix (angstroms):
                    1          2          3          4          5
     1  N    0.000000
     2  C    1.178937   0.000000
     3  N    3.040118   2.858851   0.000000
     4  N    4.037340   3.939978   1.090023   0.000000
     5  O    4.531043   3.426930   5.290118   6.243986   0.000000
     6  N    3.375579   2.340436   4.612005   5.648864   1.218552
     7  C    2.525089   1.346235   3.208062   4.237835   2.261929
     8  H    1.013700   2.171419   3.549065   4.427440   5.434598
     9  H    3.258282   2.152800   2.947415   3.827563   2.585691
                    6          7          8          9
     6  N    0.000000
     7  C    1.458859   0.000000
     8  H    4.249796   3.509287   0.000000
     9  H    2.253444   1.096869   4.248878   0.000000
 Stoichiometry    C2H2N4O
 Framework group  C1[X(C2H2N4O)]
 Deg. of freedom    21
 Full point group                 C1      NOp   1
 Largest Abelian subgroup         C1      NOp   1
 Largest concise Abelian subgroup C1      NOp   1
                         Standard orientation:                         
 ---------------------------------------------------------------------
 Center     Atomic      Atomic             Coordinates (Angstroms)
 Number     Number       Type             X           Y           Z
 ---------------------------------------------------------------------
      1          7           0        0.577645    1.895376    0.010577
      2          6           0       -0.078369    0.921276    0.113859
      3          7           0        2.351090   -0.571851   -0.089441
      4          7           0        3.319900   -1.067516   -0.027199
      5          8           0       -2.923267   -0.979728   -0.077419
      6          7           0       -2.223096    0.016272   -0.128541
      7          6           0       -0.820752   -0.197460    0.212078
      8          1           0        1.048783    2.719789   -0.344329
      9          1           0       -0.446695   -1.130827    0.650288
 ---------------------------------------------------------------------
 Rotational constants (GHZ):           4.7131175           1.1144825           0.9067278
 Standard basis: def2TZVP (5D, 7F)
 There are   264 symmetry adapted cartesian basis functions of A   symmetry.
 There are   229 symmetry adapted basis functions of A   symmetry.
   229 basis functions,   373 primitive gaussians,   264 cartesian basis functions
    25 alpha electrons       25 beta electrons
       nuclear repulsion energy       229.2947197312 Hartrees.
 NAtoms=    9 NActive=    9 NUniq=    9 SFac= 1.00D+00 NAtFMM=   60 NAOKFM=F Big=F
 Integral buffers will be    131072 words long.
 Raffenetti 2 integral format.
 Two-electron integral symmetry is turned on.
 Nuclear repulsion after empirical dispersion term =      229.2922568849 Hartrees.
 One-electron integrals computed using PRISM.
   1 Symmetry operations used in ECPInt.
 ECPInt:  NShTT=    3655 NPrTT=   11788 LenC2=    3442 LenP2D=    8601.
 LDataN:  DoStor=T MaxTD1= 6 Len=  172
 NBasis=   229 RedAO= T EigKep=  8.13D-05  NBF=   229
 NBsUse=   229 1.00D-06 EigRej= -1.00D+00 NBFU=   229
 Initial guess from the checkpoint file:  "/scratch/23935644/Gau-28021.chk"
 B after Tr=     0.000000    0.000000   -0.000000
         Rot=    0.999994    0.002286    0.000415   -0.002664 Ang=   0.41 deg.
 Initial guess <Sx>= 0.0000 <Sy>= 0.0000 <Sz>= 0.0000 <S**2>=-0.0000 S=-0.0000
 ExpMin= 9.52D-02 ExpMax= 2.70D+04 ExpMxC= 9.22D+02 IAcc=2 IRadAn=         4 AccDes= 0.00D+00
 Harris functional with IExCor= 4639 and IRadAn=       4 diagonalized for initial guess.
 HarFok:  IExCor= 4639 AccDes= 0.00D+00 IRadAn=         4 IDoV= 1 UseB2=F ITyADJ=14
 ICtDFT=  3500011 ScaDFX=  1.000000  1.000000  1.000000  1.000000
 FoFCou: FMM=F IPFlag=           0 FMFlag=      100000 FMFlg1=           0
         NFxFlg=           0 DoJE=T BraDBF=F KetDBF=T FulRan=T
         wScrn=  0.000000 ICntrl=       500 IOpCl=  0 I1Cent=   200000004 NGrid=           0
         NMat0=    1 NMatS0=      1 NMatT0=    0 NMatD0=    1 NMtDS0=    0 NMtDT0=    0
 Petite list used in FoFCou.
 Requested convergence on RMS density matrix=1.00D-08 within 128 cycles.
 Requested convergence on MAX density matrix=1.00D-06.
 Requested convergence on             energy=1.00D-06.
 No special actions if energy rises.
 Integral accuracy reduced to 1.0D-05 until final iterations.
 Initial convergence to 1.0D-05 achieved.  Increase integral accuracy.
 SCF Done:  E(UwB97XD) =  -371.533111970     A.U. after   18 cycles
            NFock= 18  Conv=0.47D-08     -V/T= 2.0045
 <Sx>= 0.0000 <Sy>= 0.0000 <Sz>= 0.0000 <S**2>=-0.0000 S=-0.0000
 <L.S>=  0.00000000000    
 Annihilation of the first spin contaminant:
 S**2 before annihilation    -0.0000,   after     0.0000
 DoSCS=F DFT=T ScalE2(SS,OS)=  1.000000  1.000000
 Range of M.O.s used for correlation:     1   229
 NBasis=   229 NAE=    25 NBE=    25 NFC=     0 NFV=     0
 NROrb=    229 NOA=    25 NOB=    25 NVA=   204 NVB=   204

 **** Warning!!: The largest alpha MO coefficient is  0.20444551D+02


 **** Warning!!: The largest beta MO coefficient is  0.20444551D+02

   1 Symmetry operations used in ECPInt.
 ECPInt:  NShTT=    3655 NPrTT=   11788 LenC2=    3442 LenP2D=    8601.
 LDataN:  DoStor=T MaxTD1= 7 Len=  274
 Symmetrizing basis deriv contribution to polar:
 IMax=3 JMax=2 DiffMx= 0.00D+00
 G2DrvN: will do    10 centers at a time, making    1 passes.
 Calling FoFCou, ICntrl=  3107 FMM=F I1Cent=   0 AccDes= 0.00D+00.
 End of G2Drv F.D. properties file   721 does not exist.
 End of G2Drv F.D. properties file   722 does not exist.
 End of G2Drv F.D. properties file   788 does not exist.
          IDoAtm=111111111
          Differentiating once with respect to electric field.
                with respect to dipole field.
          Differentiating once with respect to nuclear coordinates.
 CalDSu exits because no D1Ps are significant.
          There are    30 degrees of freedom in the 1st order CPHF.  IDoFFX=6 NUNeed=     3.
     27 vectors produced by pass  0 Test12= 3.40D-14 3.33D-09 XBig12= 9.43D+01 5.00D+00.
 AX will form    27 AO Fock derivatives at one time.
     27 vectors produced by pass  1 Test12= 3.40D-14 3.33D-09 XBig12= 2.00D+01 7.38D-01.
     27 vectors produced by pass  2 Test12= 3.40D-14 3.33D-09 XBig12= 1.12D+00 1.56D-01.
     27 vectors produced by pass  3 Test12= 3.40D-14 3.33D-09 XBig12= 2.40D-02 2.66D-02.
     27 vectors produced by pass  4 Test12= 3.40D-14 3.33D-09 XBig12= 4.11D-04 2.16D-03.
     27 vectors produced by pass  5 Test12= 3.40D-14 3.33D-09 XBig12= 4.83D-06 2.51D-04.
     26 vectors produced by pass  6 Test12= 3.40D-14 3.33D-09 XBig12= 4.07D-08 2.32D-05.
     15 vectors produced by pass  7 Test12= 3.40D-14 3.33D-09 XBig12= 2.65D-10 1.86D-06.
      3 vectors produced by pass  8 Test12= 3.40D-14 3.33D-09 XBig12= 1.71D-12 1.45D-07.
      2 vectors produced by pass  9 Test12= 3.40D-14 3.33D-09 XBig12= 1.14D-14 9.86D-09.
 InvSVY:  IOpt=1 It=  1 EMax= 4.00D-15
 Solved reduced A of dimension   208 with    30 vectors.
 Isotropic polarizability for W=    0.000000       58.99 Bohr**3.
 End of Minotr F.D. properties file   721 does not exist.
 End of Minotr F.D. properties file   722 does not exist.
 End of Minotr F.D. properties file   788 does not exist.
   1 Symmetry operations used in ECPInt.
 ECPInt:  NShTT=    3655 NPrTT=   11788 LenC2=    3442 LenP2D=    8601.
 LDataN:  DoStor=T MaxTD1= 8 Len=  415
 Calling FoFJK, ICntrl=    100127 FMM=F ISym2X=0 I1Cent= 0 IOpClX= 1 NMat=1 NMatS=1 NMatT=0.
 ***** Axes restored to original set *****
 -------------------------------------------------------------------
 Center     Atomic                   Forces (Hartrees/Bohr)
 Number     Number              X              Y              Z
 -------------------------------------------------------------------
      1        7           0.010974874    0.004093794   -0.006021892
      2        6          -0.011389485    0.009723268    0.008878967
      3        7          -0.010567676   -0.007046787   -0.000310054
      4        7           0.005751492    0.003118999    0.000546914
      5        8          -0.013942966    0.014840056   -0.002276149
      6        7          -0.019325222   -0.019475676   -0.004335378
      7        6           0.028573039    0.005208257   -0.001846200
      8        1           0.006834488   -0.018784183   -0.002248129
      9        1           0.003091456    0.008322273    0.007611920
 -------------------------------------------------------------------
 Cartesian Forces:  Max     0.028573039 RMS     0.010989561
 FormGI is forming the generalized inverse of G from B-inverse, IUseBI=4.

 GradGradGradGradGradGradGradGradGradGradGradGradGradGradGradGradGradGrad
 Berny optimization.
 Internal  Forces:  Max     0.034200754 RMS     0.008963559
 Search for a saddle point.
 Step number   2 out of a maximum of   46
 All quantities printed in internal units (Hartrees-Bohrs-Radians)
 Swapping is turned off.
 Second derivative matrix not updated -- analytic derivatives used.
 ITU=  0  0
     Eigenvalues ---   -0.03188  -0.00071  -0.00027   0.00013   0.00282
     Eigenvalues ---    0.00398   0.00927   0.01202   0.02508   0.03580
     Eigenvalues ---    0.05828   0.07964   0.11364   0.15584   0.31010
     Eigenvalues ---    0.38974   0.46217   0.49094   0.75083   1.08889
     Eigenvalues ---    1.62493
 Eigenvectors required to have negative eigenvalues:
                          A1        D1        D2        A13       A11
   1                   -0.89835  -0.31721  -0.12364  -0.10620   0.10517
                          D7        D12       A2        D6        D13
   1                   -0.08874   0.08792   0.08751  -0.07334   0.07085
 RFO step:  Lambda0=1.229508017D-03 Lambda=-1.07608152D-02.
 Linear search not attempted -- option 19 set.
 Maximum step size (   0.150) exceeded in Quadratic search.
    -- Step size scaled by   0.285
 Iteration  1 RMS(Cart)=  0.04056280 RMS(Int)=  0.00141076
 Iteration  2 RMS(Cart)=  0.00112742 RMS(Int)=  0.00009212
 Iteration  3 RMS(Cart)=  0.00000109 RMS(Int)=  0.00009211
 Iteration  4 RMS(Cart)=  0.00000000 RMS(Int)=  0.00009211
 Variable       Old X    -DE/DX   Delta X   Delta X   Delta X     New X
                                 (Linear)    (Quad)   (Total)
    R1        2.22787  -0.02279   0.00000  -0.00924  -0.00924   2.21863
    R2        1.91562  -0.01924   0.00000  -0.01257  -0.01257   1.90305
    R3        5.40245   0.00546   0.00000   0.07485   0.07476   5.47721
    R4        2.54401  -0.00702   0.00000   0.00127   0.00123   2.54524
    R5        2.05985  -0.00656   0.00000  -0.00124  -0.00124   2.05861
    R6        5.56981  -0.00034   0.00000   0.00444   0.00453   5.57434
    R7        2.30273  -0.02006   0.00000   0.00116   0.00116   2.30389
    R8        2.75684  -0.03420   0.00000  -0.05372  -0.05372   2.70313
    R9        2.07278  -0.00986   0.00000  -0.00744  -0.00740   2.06538
    A1        2.86233  -0.00687   0.00000   0.04598   0.04596   2.90830
    A2        1.52322   0.00256   0.00000   0.00988   0.01011   1.53333
    A3        1.61060   0.00002   0.00000  -0.01077  -0.01076   1.59983
    A4        0.75910  -0.00307   0.00000  -0.00840  -0.00846   0.75064
    A5        2.40850   0.00173   0.00000  -0.02044  -0.02041   2.38808
    A6        2.00732  -0.00811   0.00000  -0.00018  -0.00018   2.00714
    A7        1.97285   0.00243   0.00000   0.01424   0.01416   1.98700
    A8        2.15104   0.00076   0.00000  -0.00987  -0.00996   2.14108
    A9        2.14809  -0.00300   0.00000  -0.00104  -0.00111   2.14698
   A10        1.63290   0.00319   0.00000   0.02259   0.02262   1.65552
   A11        3.13381   0.00257   0.00000  -0.00088  -0.00065   3.13316
   A12        3.16759  -0.00133   0.00000  -0.02884  -0.02887   3.13872
   A13        3.15581  -0.00245   0.00000  -0.00509  -0.00512   3.15068
   A14        3.35982  -0.00049   0.00000  -0.09510  -0.09504   3.26478
    D1        1.75568  -0.00409   0.00000  -0.00483  -0.00463   1.75106
    D2       -1.04393   0.00054   0.00000   0.02174   0.02164  -1.02229
    D3        2.24562   0.00116   0.00000   0.00072   0.00060   2.24622
    D4        2.93155  -0.00129   0.00000  -0.01041  -0.01046   2.92109
    D5       -0.22425   0.00116   0.00000  -0.00531  -0.00534  -0.22959
    D6       -2.78357  -0.00071   0.00000   0.03010   0.03006  -2.75351
    D7        0.51412  -0.00177   0.00000   0.00698   0.00687   0.52099
    D8        0.27677  -0.00082   0.00000   0.00830   0.00843   0.28520
    D9       -3.08305  -0.00033   0.00000   0.10340   0.10347  -2.97958
   D10        3.11723   0.00158   0.00000   0.01353   0.01342   3.13065
   D11       -0.18015   0.00302   0.00000   0.03569   0.03579  -0.14436
   D12       -0.49785   0.00101   0.00000  -0.01481  -0.01496  -0.51280
   D13        2.81532  -0.00067   0.00000  -0.04144  -0.04148   2.77384
         Item               Value     Threshold  Converged?
 Maximum Force            0.034201     0.000450     NO 
 RMS     Force            0.008964     0.000300     NO 
 Maximum Displacement     0.125379     0.001800     NO 
 RMS     Displacement     0.040359     0.001200     NO 
 Predicted change in Energy=-2.434211D-03
 GradGradGradGradGradGradGradGradGradGradGradGradGradGradGradGradGradGrad

                          Input orientation:                          
 ---------------------------------------------------------------------
 Center     Atomic      Atomic             Coordinates (Angstroms)
 Number     Number       Type             X           Y           Z
 ---------------------------------------------------------------------
      1          7           0       -0.567790    1.906988    0.003871
      2          6           0        0.085976    0.937584   -0.102112
      3          7           0       -2.362096   -0.602561    0.086831
      4          7           0       -3.299071   -1.158030    0.070826
      5          8           0        2.886705   -1.007846    0.079703
      6          7           0        2.198328   -0.004732    0.158846
      7          6           0        0.827817   -0.181322   -0.210823
      8          1           0       -1.055632    2.730309    0.317404
      9          1           0        0.446883   -1.100151   -0.663795
 ---------------------------------------------------------------------
                    Distance matrix (angstroms):
                    1          2          3          4          5
     1  N    0.000000
     2  C    1.174047   0.000000
     3  N    3.086139   2.898414   0.000000
     4  N    4.105936   3.984977   1.089368   0.000000
     5  O    4.520569   3.414944   5.264429   6.187605   0.000000
     6  N    3.366021   2.327680   4.600006   5.617760   1.219165
     7  C    2.520884   1.346885   3.231345   4.250234   2.237535
     8  H    1.007050   2.166362   3.587204   4.495887   5.438044
     9  H    3.243181   2.144320   2.949813   3.817746   2.552262
                    6          7          8          9
     6  N    0.000000
     7  C    1.430433   0.000000
     8  H    4.253686   3.507706   0.000000
     9  H    2.223565   1.092950   4.229979   0.000000
 Stoichiometry    C2H2N4O
 Framework group  C1[X(C2H2N4O)]
 Deg. of freedom    21
 Full point group                 C1      NOp   1
 Largest Abelian subgroup         C1      NOp   1
 Largest concise Abelian subgroup C1      NOp   1
                         Standard orientation:                         
 ---------------------------------------------------------------------
 Center     Atomic      Atomic             Coordinates (Angstroms)
 Number     Number       Type             X           Y           Z
 ---------------------------------------------------------------------
      1          7           0        0.539477    1.931759    0.001738
      2          6           0       -0.102753    0.954995    0.110637
      3          7           0        2.364236   -0.556209   -0.065499
      4          7           0        3.307828   -1.100202   -0.044750
      5          8           0       -2.879273   -1.025048   -0.068811
      6          7           0       -2.202907   -0.014036   -0.150943
      7          6           0       -0.831249   -0.172314    0.222743
      8          1           0        1.018063    2.759494   -0.314425
      9          1           0       -0.440303   -1.084382    0.680818
 ---------------------------------------------------------------------
 Rotational constants (GHZ):           4.5028400           1.1291484           0.9085007
 Standard basis: def2TZVP (5D, 7F)
 There are   264 symmetry adapted cartesian basis functions of A   symmetry.
 There are   229 symmetry adapted basis functions of A   symmetry.
   229 basis functions,   373 primitive gaussians,   264 cartesian basis functions
    25 alpha electrons       25 beta electrons
       nuclear repulsion energy       229.6344056502 Hartrees.
 NAtoms=    9 NActive=    9 NUniq=    9 SFac= 1.00D+00 NAtFMM=   60 NAOKFM=F Big=F
 Integral buffers will be    131072 words long.
 Raffenetti 2 integral format.
 Two-electron integral symmetry is turned on.
 Nuclear repulsion after empirical dispersion term =      229.6319594885 Hartrees.
 One-electron integrals computed using PRISM.
   1 Symmetry operations used in ECPInt.
 ECPInt:  NShTT=    3655 NPrTT=   11788 LenC2=    3442 LenP2D=    8594.
 LDataN:  DoStor=T MaxTD1= 6 Len=  172
 NBasis=   229 RedAO= T EigKep=  7.86D-05  NBF=   229
 NBsUse=   229 1.00D-06 EigRej= -1.00D+00 NBFU=   229
 Initial guess from the checkpoint file:  "/scratch/23935644/Gau-28021.chk"
 B after Tr=    -0.000000   -0.000000    0.000000
         Rot=    0.999991    0.002200    0.000296   -0.003675 Ang=   0.49 deg.
 Initial guess <Sx>= 0.0000 <Sy>= 0.0000 <Sz>= 0.0000 <S**2>=-0.0000 S=-0.0000
 ExpMin= 9.52D-02 ExpMax= 2.70D+04 ExpMxC= 9.22D+02 IAcc=2 IRadAn=         4 AccDes= 0.00D+00
 Harris functional with IExCor= 4639 and IRadAn=       4 diagonalized for initial guess.
 HarFok:  IExCor= 4639 AccDes= 0.00D+00 IRadAn=         4 IDoV= 1 UseB2=F ITyADJ=14
 ICtDFT=  3500011 ScaDFX=  1.000000  1.000000  1.000000  1.000000
 FoFCou: FMM=F IPFlag=           0 FMFlag=      100000 FMFlg1=           0
         NFxFlg=           0 DoJE=T BraDBF=F KetDBF=T FulRan=T
         wScrn=  0.000000 ICntrl=       500 IOpCl=  0 I1Cent=   200000004 NGrid=           0
         NMat0=    1 NMatS0=      1 NMatT0=    0 NMatD0=    1 NMtDS0=    0 NMtDT0=    0
 Petite list used in FoFCou.
 Requested convergence on RMS density matrix=1.00D-08 within 128 cycles.
 Requested convergence on MAX density matrix=1.00D-06.
 Requested convergence on             energy=1.00D-06.
 No special actions if energy rises.
 Integral accuracy reduced to 1.0D-05 until final iterations.
 Initial convergence to 1.0D-05 achieved.  Increase integral accuracy.
 SCF Done:  E(UwB97XD) =  -371.535520250     A.U. after   17 cycles
            NFock= 17  Conv=0.70D-08     -V/T= 2.0043
 <Sx>= 0.0000 <Sy>= 0.0000 <Sz>= 0.0000 <S**2>=-0.0000 S=-0.0000
 <L.S>=  0.00000000000    
 Annihilation of the first spin contaminant:
 S**2 before annihilation    -0.0000,   after     0.0000
 DoSCS=F DFT=T ScalE2(SS,OS)=  1.000000  1.000000
 Range of M.O.s used for correlation:     1   229
 NBasis=   229 NAE=    25 NBE=    25 NFC=     0 NFV=     0
 NROrb=    229 NOA=    25 NOB=    25 NVA=   204 NVB=   204

 **** Warning!!: The largest alpha MO coefficient is  0.19678839D+02


 **** Warning!!: The largest beta MO coefficient is  0.19678839D+02

   1 Symmetry operations used in ECPInt.
 ECPInt:  NShTT=    3655 NPrTT=   11788 LenC2=    3442 LenP2D=    8594.
 LDataN:  DoStor=T MaxTD1= 7 Len=  274
 Symmetrizing basis deriv contribution to polar:
 IMax=3 JMax=2 DiffMx= 0.00D+00
 G2DrvN: will do    10 centers at a time, making    1 passes.
 Calling FoFCou, ICntrl=  3107 FMM=F I1Cent=   0 AccDes= 0.00D+00.
 End of G2Drv F.D. properties file   721 does not exist.
 End of G2Drv F.D. properties file   722 does not exist.
 End of G2Drv F.D. properties file   788 does not exist.
          IDoAtm=111111111
          Differentiating once with respect to electric field.
                with respect to dipole field.
          Differentiating once with respect to nuclear coordinates.
 CalDSu exits because no D1Ps are significant.
          There are    30 degrees of freedom in the 1st order CPHF.  IDoFFX=6 NUNeed=     3.
     27 vectors produced by pass  0 Test12= 3.40D-14 3.33D-09 XBig12= 9.01D+01 4.96D+00.
 AX will form    27 AO Fock derivatives at one time.
     27 vectors produced by pass  1 Test12= 3.40D-14 3.33D-09 XBig12= 1.92D+01 7.49D-01.
     27 vectors produced by pass  2 Test12= 3.40D-14 3.33D-09 XBig12= 1.03D+00 1.47D-01.
     27 vectors produced by pass  3 Test12= 3.40D-14 3.33D-09 XBig12= 2.17D-02 2.51D-02.
     27 vectors produced by pass  4 Test12= 3.40D-14 3.33D-09 XBig12= 3.84D-04 2.25D-03.
     27 vectors produced by pass  5 Test12= 3.40D-14 3.33D-09 XBig12= 4.72D-06 2.38D-04.
     26 vectors produced by pass  6 Test12= 3.40D-14 3.33D-09 XBig12= 3.95D-08 2.90D-05.
     18 vectors produced by pass  7 Test12= 3.40D-14 3.33D-09 XBig12= 2.86D-10 2.13D-06.
      3 vectors produced by pass  8 Test12= 3.40D-14 3.33D-09 XBig12= 2.10D-12 1.92D-07.
      2 vectors produced by pass  9 Test12= 3.40D-14 3.33D-09 XBig12= 1.45D-14 1.40D-08.
 InvSVY:  IOpt=1 It=  1 EMax= 1.78D-15
 Solved reduced A of dimension   211 with    30 vectors.
 Isotropic polarizability for W=    0.000000       58.44 Bohr**3.
 End of Minotr F.D. properties file   721 does not exist.
 End of Minotr F.D. properties file   722 does not exist.
 End of Minotr F.D. properties file   788 does not exist.
   1 Symmetry operations used in ECPInt.
 ECPInt:  NShTT=    3655 NPrTT=   11788 LenC2=    3442 LenP2D=    8594.
 LDataN:  DoStor=T MaxTD1= 8 Len=  415
 Calling FoFJK, ICntrl=    100127 FMM=F ISym2X=0 I1Cent= 0 IOpClX= 1 NMat=1 NMatS=1 NMatT=0.
 ***** Axes restored to original set *****
 -------------------------------------------------------------------
 Center     Atomic                   Forces (Hartrees/Bohr)
 Number     Number              X              Y              Z
 -------------------------------------------------------------------
      1        7           0.008766275    0.003984199   -0.005488370
      2        6          -0.008457492    0.006436640    0.006817519
      3        7          -0.008135622   -0.005731562   -0.000150851
      4        7           0.004005132    0.002413489    0.000295129
      5        8          -0.009641659    0.010939921   -0.001529305
      6        7          -0.013518513   -0.013696963   -0.003339141
      7        6           0.020411733    0.003586123   -0.001799863
      8        1           0.004562955   -0.013737776   -0.000806239
      9        1           0.002007192    0.005805930    0.006001122
 -------------------------------------------------------------------
 Cartesian Forces:  Max     0.020411733 RMS     0.007973272
 FormGI is forming the generalized inverse of G from B-inverse, IUseBI=4.

 GradGradGradGradGradGradGradGradGradGradGradGradGradGradGradGradGradGrad
 Berny optimization.
 Internal  Forces:  Max     0.023789409 RMS     0.006348440
 Search for a saddle point.
 Step number   3 out of a maximum of   46
 All quantities printed in internal units (Hartrees-Bohrs-Radians)
 Swapping is turned off.
 Second derivative matrix not updated -- analytic derivatives used.
 ITU=  0  0  0
     Eigenvalues ---   -0.03025  -0.00055  -0.00002   0.00019   0.00264
     Eigenvalues ---    0.00308   0.00977   0.01202   0.02681   0.03155
     Eigenvalues ---    0.05791   0.08103   0.11618   0.19457   0.31685
     Eigenvalues ---    0.39385   0.48097   0.49577   0.76430   1.12065
     Eigenvalues ---    1.63367
 Eigenvectors required to have negative eigenvalues:
                          A1        D1        A13       A11       D7
   1                    0.89534   0.34162   0.10765  -0.10326   0.09164
                          D12       D2        A2        D6        D13
   1                   -0.09149   0.08905  -0.08542   0.07694  -0.07564
 RFO step:  Lambda0=9.001549643D-04 Lambda=-5.75165552D-03.
 Linear search not attempted -- option 19 set.
 Maximum step size (   0.150) exceeded in Quadratic search.
    -- Step size scaled by   0.326
 Iteration  1 RMS(Cart)=  0.04261538 RMS(Int)=  0.00149320
 Iteration  2 RMS(Cart)=  0.00120668 RMS(Int)=  0.00018713
 Iteration  3 RMS(Cart)=  0.00000167 RMS(Int)=  0.00018713
 Iteration  4 RMS(Cart)=  0.00000000 RMS(Int)=  0.00018713
 Variable       Old X    -DE/DX   Delta X   Delta X   Delta X     New X
                                 (Linear)    (Quad)   (Total)
    R1        2.21863  -0.01605   0.00000  -0.00703  -0.00703   2.21160
    R2        1.90305  -0.01369   0.00000  -0.00997  -0.00997   1.89308
    R3        5.47721   0.00471   0.00000   0.09442   0.09427   5.57148
    R4        2.54524  -0.00497   0.00000   0.00009  -0.00001   2.54523
    R5        2.05861  -0.00468   0.00000  -0.00099  -0.00099   2.05762
    R6        5.57434  -0.00023   0.00000   0.02464   0.02482   5.59916
    R7        2.30389  -0.01435   0.00000  -0.00056  -0.00056   2.30333
    R8        2.70313  -0.02379   0.00000  -0.03498  -0.03498   2.66815
    R9        2.06538  -0.00707   0.00000  -0.00615  -0.00613   2.05925
    A1        2.90830  -0.00508   0.00000   0.04659   0.04652   2.95481
    A2        1.53333   0.00180   0.00000   0.00906   0.00963   1.54296
    A3        1.59983  -0.00013   0.00000  -0.01147  -0.01143   1.58841
    A4        0.75064  -0.00224   0.00000  -0.01106  -0.01110   0.73954
    A5        2.38808   0.00124   0.00000  -0.05286  -0.05284   2.33524
    A6        2.00714  -0.00564   0.00000  -0.00020  -0.00020   2.00694
    A7        1.98700   0.00184   0.00000   0.01263   0.01256   1.99956
    A8        2.14108   0.00048   0.00000  -0.00873  -0.00896   2.13212
    A9        2.14698  -0.00218   0.00000  -0.00044  -0.00050   2.14648
   A10        1.65552   0.00263   0.00000   0.02079   0.02075   1.67628
   A11        3.13316   0.00167   0.00000  -0.00241  -0.00180   3.13136
   A12        3.13872  -0.00100   0.00000  -0.06392  -0.06394   3.07478
   A13        3.15068  -0.00186   0.00000  -0.00498  -0.00505   3.14563
   A14        3.26478  -0.00045   0.00000  -0.03711  -0.03702   3.22776
    D1        1.75106  -0.00323   0.00000  -0.00930  -0.00888   1.74218
    D2       -1.02229   0.00067   0.00000   0.02527   0.02506  -0.99723
    D3        2.24622   0.00088   0.00000  -0.00132  -0.00153   2.24470
    D4        2.92109  -0.00096   0.00000  -0.01328  -0.01340   2.90769
    D5       -0.22959   0.00090   0.00000  -0.00830  -0.00835  -0.23794
    D6       -2.75351  -0.00047   0.00000   0.04283   0.04279  -2.71072
    D7        0.52099  -0.00147   0.00000   0.01460   0.01444   0.53543
    D8        0.28520  -0.00063   0.00000   0.01191   0.01207   0.29727
    D9       -2.97958  -0.00018   0.00000   0.04901   0.04909  -2.93049
   D10        3.13065   0.00124   0.00000   0.00921   0.00908   3.13974
   D11       -0.14436   0.00248   0.00000   0.03684   0.03698  -0.10739
   D12       -0.51280   0.00081   0.00000  -0.02272  -0.02290  -0.53571
   D13        2.77384  -0.00061   0.00000  -0.05443  -0.05455   2.71929
         Item               Value     Threshold  Converged?
 Maximum Force            0.023789     0.000450     NO 
 RMS     Force            0.006348     0.000300     NO 
 Maximum Displacement     0.145182     0.001800     NO 
 RMS     Displacement     0.042658     0.001200     NO 
 Predicted change in Energy=-1.376825D-03
 GradGradGradGradGradGradGradGradGradGradGradGradGradGradGradGradGradGrad

                          Input orientation:                          
 ---------------------------------------------------------------------
 Center     Atomic      Atomic             Coordinates (Angstroms)
 Number     Number       Type             X           Y           Z
 ---------------------------------------------------------------------
      1          7           0       -0.544773    1.934027    0.015107
      2          6           0        0.101275    0.964635   -0.097004
      3          7           0       -2.381597   -0.613407    0.096902
      4          7           0       -3.275550   -1.234857    0.081652
      5          8           0        2.850015   -1.041669    0.078910
      6          7           0        2.180351   -0.028768    0.184869
      7          6           0        0.833916   -0.158867   -0.219747
      8          1           0       -1.042526    2.758957    0.289490
      9          1           0        0.440010   -1.059812   -0.689430
 ---------------------------------------------------------------------
                    Distance matrix (angstroms):
                    1          2          3          4          5
     1  N    0.000000
     2  C    1.170328   0.000000
     3  N    3.141661   2.948299   0.000000
     4  N    4.183706   4.033934   1.088845   0.000000
     5  O    4.514801   3.407606   5.249142   6.128611   0.000000
     6  N    3.362690   2.321392   4.600099   5.588573   1.218871
     7  C    2.517170   1.346880   3.262882   4.258674   2.221079
     8  H    1.001775   2.162695   3.633598   4.580408   5.444353
     9  H    3.229434   2.136374   2.962948   3.798762   2.529585
                    6          7          8          9
     6  N    0.000000
     7  C    1.411923   0.000000
     8  H    4.262546   3.506288   0.000000
     9  H    2.203687   1.089709   4.211792   0.000000
 Stoichiometry    C2H2N4O
 Framework group  C1[X(C2H2N4O)]
 Deg. of freedom    21
 Full point group                 C1      NOp   1
 Largest Abelian subgroup         C1      NOp   1
 Largest concise Abelian subgroup C1      NOp   1
                         Standard orientation:                         
 ---------------------------------------------------------------------
 Center     Atomic      Atomic             Coordinates (Angstroms)
 Number     Number       Type             X           Y           Z
 ---------------------------------------------------------------------
      1          7           0        0.495411    1.973199   -0.006583
      2          6           0       -0.129899    0.990806    0.109860
      3          7           0        2.387073   -0.534405   -0.066362
      4          7           0        3.294186   -1.136274   -0.044401
      5          8           0       -2.834100   -1.075537   -0.061320
      6          7           0       -2.186138   -0.049096   -0.171823
      7          6           0       -0.838487   -0.147462    0.237672
      8          1           0        0.976092    2.806920   -0.284804
      9          1           0       -0.426693   -1.036653    0.714361
 ---------------------------------------------------------------------
 Rotational constants (GHZ):           4.2785968           1.1424795           0.9080531
 Standard basis: def2TZVP (5D, 7F)
 There are   264 symmetry adapted cartesian basis functions of A   symmetry.
 There are   229 symmetry adapted basis functions of A   symmetry.
   229 basis functions,   373 primitive gaussians,   264 cartesian basis functions
    25 alpha electrons       25 beta electrons
       nuclear repulsion energy       229.6567881826 Hartrees.
 NAtoms=    9 NActive=    9 NUniq=    9 SFac= 1.00D+00 NAtFMM=   60 NAOKFM=F Big=F
 Integral buffers will be    131072 words long.
 Raffenetti 2 integral format.
 Two-electron integral symmetry is turned on.
 Nuclear repulsion after empirical dispersion term =      229.6543563398 Hartrees.
 One-electron integrals computed using PRISM.
   1 Symmetry operations used in ECPInt.
 ECPInt:  NShTT=    3655 NPrTT=   11788 LenC2=    3442 LenP2D=    8585.
 LDataN:  DoStor=T MaxTD1= 6 Len=  172
 NBasis=   229 RedAO= T EigKep=  7.63D-05  NBF=   229
 NBsUse=   229 1.00D-06 EigRej= -1.00D+00 NBFU=   229
 Initial guess from the checkpoint file:  "/scratch/23935644/Gau-28021.chk"
 B after Tr=    -0.000000    0.000000    0.000000
         Rot=    0.999988    0.002304    0.000241   -0.004410 Ang=   0.57 deg.
 Initial guess <Sx>= 0.0000 <Sy>= 0.0000 <Sz>= 0.0000 <S**2>=-0.0000 S=-0.0000
 ExpMin= 9.52D-02 ExpMax= 2.70D+04 ExpMxC= 9.22D+02 IAcc=2 IRadAn=         4 AccDes= 0.00D+00
 Harris functional with IExCor= 4639 and IRadAn=       4 diagonalized for initial guess.
 HarFok:  IExCor= 4639 AccDes= 0.00D+00 IRadAn=         4 IDoV= 1 UseB2=F ITyADJ=14
 ICtDFT=  3500011 ScaDFX=  1.000000  1.000000  1.000000  1.000000
 FoFCou: FMM=F IPFlag=           0 FMFlag=      100000 FMFlg1=           0
         NFxFlg=           0 DoJE=T BraDBF=F KetDBF=T FulRan=T
         wScrn=  0.000000 ICntrl=       500 IOpCl=  0 I1Cent=   200000004 NGrid=           0
         NMat0=    1 NMatS0=      1 NMatT0=    0 NMatD0=    1 NMtDS0=    0 NMtDT0=    0
 Petite list used in FoFCou.
 Requested convergence on RMS density matrix=1.00D-08 within 128 cycles.
 Requested convergence on MAX density matrix=1.00D-06.
 Requested convergence on             energy=1.00D-06.
 No special actions if energy rises.
 Integral accuracy reduced to 1.0D-05 until final iterations.
 Initial convergence to 1.0D-05 achieved.  Increase integral accuracy.
 SCF Done:  E(UwB97XD) =  -371.536889871     A.U. after   16 cycles
            NFock= 16  Conv=0.93D-08     -V/T= 2.0042
 <Sx>= 0.0000 <Sy>= 0.0000 <Sz>= 0.0000 <S**2>=-0.0000 S=-0.0000
 <L.S>=  0.00000000000    
 Annihilation of the first spin contaminant:
 S**2 before annihilation    -0.0000,   after    -0.0000
 DoSCS=F DFT=T ScalE2(SS,OS)=  1.000000  1.000000
 Range of M.O.s used for correlation:     1   229
 NBasis=   229 NAE=    25 NBE=    25 NFC=     0 NFV=     0
 NROrb=    229 NOA=    25 NOB=    25 NVA=   204 NVB=   204

 **** Warning!!: The largest alpha MO coefficient is  0.20558944D+02


 **** Warning!!: The largest beta MO coefficient is  0.20558944D+02

   1 Symmetry operations used in ECPInt.
 ECPInt:  NShTT=    3655 NPrTT=   11788 LenC2=    3442 LenP2D=    8585.
 LDataN:  DoStor=T MaxTD1= 7 Len=  274
 Symmetrizing basis deriv contribution to polar:
 IMax=3 JMax=2 DiffMx= 0.00D+00
 G2DrvN: will do    10 centers at a time, making    1 passes.
 Calling FoFCou, ICntrl=  3107 FMM=F I1Cent=   0 AccDes= 0.00D+00.
 End of G2Drv F.D. properties file   721 does not exist.
 End of G2Drv F.D. properties file   722 does not exist.
 End of G2Drv F.D. properties file   788 does not exist.
          IDoAtm=111111111
          Differentiating once with respect to electric field.
                with respect to dipole field.
          Differentiating once with respect to nuclear coordinates.
 CalDSu exits because no D1Ps are significant.
          There are    30 degrees of freedom in the 1st order CPHF.  IDoFFX=6 NUNeed=     3.
     27 vectors produced by pass  0 Test12= 3.40D-14 3.33D-09 XBig12= 8.61D+01 4.89D+00.
 AX will form    27 AO Fock derivatives at one time.
     27 vectors produced by pass  1 Test12= 3.40D-14 3.33D-09 XBig12= 1.82D+01 7.16D-01.
     27 vectors produced by pass  2 Test12= 3.40D-14 3.33D-09 XBig12= 9.46D-01 1.53D-01.
[...]
     8 H(1)   Bbb     0.0000     0.000     0.000     0.000  0.2489  0.1258  0.9603
              Bcc     0.0000     0.000     0.000     0.000  0.7836  0.5566 -0.2760
 
              Baa    -0.0000    -0.000    -0.000    -0.000  0.1181 -0.0273  0.9926
     9 H(1)   Bbb     0.0000     0.000     0.000     0.000  0.7588 -0.6424 -0.1080
              Bcc     0.0000     0.000     0.000     0.000  0.6406  0.7659 -0.0552
 

 ---------------------------------------------------------------------------------

 Rotating derivatives to standard orientation.
 Full mass-weighted force constant matrix:
 Low frequencies --- -660.3915   -6.3658   -2.0282   -0.0006    0.0008    0.0010
 Low frequencies ---    2.6368   19.8820   25.0689
 ******    1 imaginary frequencies (negative Signs) ****** 
 Diagonal vibrational polarizability:
      516.1903142      33.6340476     108.4707594
 Harmonic frequencies (cm**-1), IR intensities (KM/Mole), Raman scattering
 activities (A**4/AMU), depolarization ratios for plane and unpolarized
 incident light, reduced masses (AMU), force constants (mDyne/A),
 and normal coordinates:
                      1                      2                      3
                      A                      A                      A
 Frequencies --   -660.3906                19.2321                24.7730
 Red. masses --      1.2722                 9.0571                12.5434
 Frc consts  --      0.3269                 0.0020                 0.0045
 IR Inten    --    183.7379                 7.0309                 0.5391
  Atom  AN      X      Y      Z        X      Y      Z        X      Y      Z
     1   7    -0.02   0.00  -0.13    -0.35   0.23   0.01    -0.10   0.00  -0.06
     2   6     0.01  -0.00   0.06    -0.18   0.13  -0.01    -0.12   0.01  -0.08
     3   7    -0.00   0.00   0.00    -0.03  -0.30   0.01     0.33   0.00   0.59
     4   7    -0.00   0.00  -0.00    -0.04  -0.31  -0.01     0.24  -0.04  -0.52
     5   8    -0.00   0.00  -0.00     0.35   0.06   0.01    -0.12   0.01   0.08
     6   7     0.00  -0.00   0.00     0.19   0.15   0.02    -0.11   0.00   0.09
     7   6     0.00  -0.00   0.00     0.01   0.03  -0.02    -0.13   0.01  -0.11
     8   1     0.12  -0.02   0.98    -0.52   0.32   0.02    -0.11   0.00  -0.05
     9   1    -0.00   0.00  -0.00     0.01  -0.14  -0.07    -0.15   0.02  -0.27
                      4                      5                      6
                      A                      A                      A
 Frequencies --     27.2726                32.3189                53.6317
 Red. masses --      3.8409                 7.5658                13.7731
 Frc consts  --      0.0017                 0.0047                 0.0233
 IR Inten    --      1.7595                 0.0998                 0.1945
  Atom  AN      X      Y      Z        X      Y      Z        X      Y      Z
     1   7    -0.08   0.01  -0.13    -0.11   0.01   0.15    -0.00   0.03  -0.02
     2   6    -0.05   0.01   0.06    -0.13   0.01  -0.01     0.00   0.03   0.01
     3   7     0.18  -0.00  -0.00     0.35  -0.01  -0.32    -0.54  -0.35   0.01
     4   7     0.10  -0.04   0.10     0.28  -0.04   0.21     0.71   0.22   0.00
     5   8    -0.05   0.01  -0.04    -0.13   0.01  -0.00    -0.09   0.03  -0.01
     6   7    -0.07   0.01  -0.24    -0.11   0.01   0.16    -0.05   0.01  -0.03
     7   6    -0.02  -0.00   0.28    -0.15   0.01  -0.19    -0.01   0.04   0.04
     8   1    -0.11   0.02  -0.29    -0.10   0.01   0.29    -0.00   0.03  -0.05
     9   1     0.04  -0.02   0.82    -0.20   0.02  -0.59    -0.00   0.06   0.11
                      7                      8                      9
                      A                      A                      A
 Frequencies --    182.1636               184.3578               531.4451
 Red. masses --      5.8508                 8.3841                 4.9234
 Frc consts  --      0.1144                 0.1679                 0.8193
 IR Inten    --      2.6701                 5.7155                22.6404
  Atom  AN      X      Y      Z        X      Y      Z        X      Y      Z
     1   7    -0.21   0.25   0.02    -0.02  -0.01  -0.24    -0.02   0.11   0.01
     2   6     0.22   0.01  -0.02    -0.00  -0.00   0.10     0.31  -0.07  -0.04
     3   7     0.01   0.01  -0.00     0.00   0.00   0.00     0.00   0.00  -0.00
     4   7    -0.01   0.00   0.00    -0.00  -0.00  -0.00     0.00   0.00   0.00
     5   8    -0.26  -0.05   0.01    -0.04   0.01  -0.43     0.18  -0.22  -0.03
     6   7     0.06  -0.22   0.01     0.05   0.00   0.47    -0.28   0.04   0.03
     7   6     0.32  -0.04  -0.03     0.02  -0.00   0.28    -0.15   0.11   0.02
     8   1    -0.56   0.44   0.06    -0.03  -0.01  -0.55    -0.30   0.27   0.04
     9   1     0.31   0.08  -0.05    -0.06   0.00  -0.38    -0.20   0.69   0.04
                     10                     11                     12
                      A                      A                      A
 Frequencies --    539.0253               564.8984               609.3287
 Red. masses --      1.2325                 5.7937                11.2826
 Frc consts  --      0.2110                 1.0893                 2.4681
 IR Inten    --    135.1731                 0.2088                 1.2697
  Atom  AN      X      Y      Z        X      Y      Z        X      Y      Z
     1   7    -0.10   0.07   0.01    -0.02   0.00  -0.17     0.27   0.22  -0.03
     2   6     0.04  -0.01  -0.00     0.07  -0.01   0.56    -0.39   0.52   0.06
     3   7     0.00  -0.00   0.00     0.00   0.00   0.00    -0.00  -0.00  -0.00
     4   7     0.00  -0.00  -0.00    -0.00   0.00  -0.00     0.00  -0.00  -0.00
     5   8     0.00  -0.02  -0.00     0.01  -0.00   0.05     0.05  -0.40  -0.02
     6   7    -0.00  -0.01   0.00    -0.01   0.00  -0.06    -0.06  -0.32  -0.00
     7   6     0.00   0.00  -0.00    -0.03   0.01  -0.28     0.03   0.12  -0.00
     8   1     0.87  -0.46  -0.11    -0.09   0.02  -0.72     0.36   0.18  -0.04
     9   1     0.00   0.02   0.00    -0.03   0.01  -0.22     0.03   0.04  -0.00
                     13                     14                     15
                      A                      A                      A
 Frequencies --    704.3786              1103.0581              1135.1524
 Red. masses --      1.3817                 1.6032                 9.0539
 Frc consts  --      0.4039                 1.1493                 6.8738
 IR Inten    --     44.5375                90.8650               299.6227
  Atom  AN      X      Y      Z        X      Y      Z        X      Y      Z
     1   7     0.00  -0.00   0.01    -0.05  -0.11   0.00    -0.03  -0.12   0.00
     2   6    -0.00   0.00  -0.01    -0.08  -0.03   0.01    -0.15   0.06   0.02
     3   7     0.00  -0.00   0.00    -0.00  -0.00  -0.00     0.00   0.00   0.00
     4   7     0.00  -0.00   0.00     0.00   0.00  -0.00     0.00  -0.00   0.00
     5   8    -0.00   0.00  -0.04     0.01   0.02  -0.00     0.05  -0.08  -0.01
     6   7     0.01  -0.00   0.10     0.05  -0.06  -0.01    -0.41   0.34   0.06
     7   6    -0.02   0.00  -0.14     0.08   0.13  -0.01     0.54  -0.19  -0.07
     8   1     0.00  -0.00   0.03    -0.04  -0.13   0.00     0.05  -0.17  -0.01
     9   1     0.12  -0.02   0.98     0.04   0.96   0.02     0.54  -0.01  -0.06
                     16                     17                     18
                      A                      A                      A
 Frequencies --   1372.5053              1572.9727              2279.3326
 Red. masses --      2.8113                14.3521                 7.8552
 Frc consts  --      3.1202                20.9223                24.0450
 IR Inten    --    121.4770               358.2048               851.8027
  Atom  AN      X      Y      Z        X      Y      Z        X      Y      Z
     1   7    -0.06  -0.10   0.01     0.04   0.08  -0.00    -0.19  -0.34   0.01
     2   6     0.02  -0.05  -0.00    -0.04  -0.03   0.00     0.31   0.57  -0.02
     3   7    -0.00   0.00   0.00    -0.00   0.00   0.00     0.00  -0.00   0.00
     4   7    -0.00   0.00   0.00     0.00  -0.00   0.00    -0.00   0.00  -0.00
     5   8     0.02  -0.04  -0.00     0.32   0.55  -0.02     0.01   0.03  -0.00
     6   7    -0.05  -0.05   0.00    -0.44  -0.58   0.04    -0.00  -0.05  -0.00
     7   6     0.07   0.36  -0.00     0.06  -0.12  -0.01    -0.07  -0.11   0.01
     8   1    -0.09  -0.12   0.01     0.07   0.08  -0.01    -0.30  -0.54   0.02
     9   1     0.16  -0.89  -0.04     0.06  -0.14  -0.01    -0.13  -0.04   0.01
                     19                     20                     21
                      A                      A                      A
 Frequencies --   2497.9218              3196.4047              3897.2330
 Red. masses --     14.0029                 1.0897                 1.1127
 Frc consts  --     51.4787                 6.5598                 9.9571
 IR Inten    --      0.2579                 2.9444               846.8087
  Atom  AN      X      Y      Z        X      Y      Z        X      Y      Z
     1   7    -0.00  -0.00   0.00    -0.00  -0.00   0.00    -0.04  -0.08   0.00
     2   6     0.00   0.00  -0.00     0.00   0.01  -0.00     0.01   0.02  -0.00
     3   7    -0.29   0.64   0.00    -0.00   0.00  -0.00    -0.00   0.00   0.00
     4   7     0.29  -0.64  -0.00     0.00  -0.00  -0.00     0.00  -0.00  -0.00
     5   8    -0.00  -0.00  -0.00     0.00  -0.00  -0.00     0.00   0.00  -0.00
     6   7     0.00   0.00   0.00    -0.00  -0.00   0.00     0.00  -0.00  -0.00
     7   6    -0.00  -0.00  -0.00    -0.09  -0.01   0.01    -0.00   0.00   0.00
     8   1    -0.00  -0.00   0.00    -0.00  -0.00   0.00     0.48   0.87  -0.04
     9   1    -0.00  -0.00   0.00     0.99   0.06  -0.12    -0.00   0.00   0.00

 -------------------
 - Thermochemistry -
 -------------------
 Temperature   298.150 Kelvin.  Pressure   1.00000 Atm.
 Atom     1 has atomic number  7 and mass  14.00307
 Atom     2 has atomic number  6 and mass  12.00000
 Atom     3 has atomic number  7 and mass  14.00307
 Atom     4 has atomic number  7 and mass  14.00307
 Atom     5 has atomic number  8 and mass  15.99491
 Atom     6 has atomic number  7 and mass  14.00307
 Atom     7 has atomic number  6 and mass  12.00000
 Atom     8 has atomic number  1 and mass   1.00783
 Atom     9 has atomic number  1 and mass   1.00783
 Molecular mass:    98.02286 amu.
 Principal axes and moments of inertia in atomic units:
                           1         2         3
     Eigenvalues --   708.250481113.889811821.00260
           X            1.00000  -0.00094  -0.00163
           Y            0.00094   1.00000  -0.00105
           Z            0.00163   0.00105   1.00000
 This molecule is an asymmetric top.
 Rotational symmetry number  1.
 Warning -- assumption of classical behavior for rotation
           may cause significant error
 Rotational temperatures (Kelvin)      0.12229     0.07776     0.04756
 Rotational constants (GHZ):           2.54817     1.62022     0.99107
    1 imaginary frequencies ignored.
 Zero-point vibrational energy     122781.2 (Joules/Mol)
                                   29.34540 (Kcal/Mol)
 Warning -- explicit consideration of  11 degrees of freedom as
           vibrations may cause significant error
 Vibrational temperatures:     27.67    35.64    39.24    46.50    77.16
          (Kelvin)            262.09   265.25   764.63   775.54   812.76
                              876.69  1013.44  1587.05  1633.23  1974.73
                             2263.16  3279.45  3593.95  4598.91  5607.25
 
 Zero-point correction=                           0.046765 (Hartree/Particle)
 Thermal correction to Energy=                    0.056049
 Thermal correction to Enthalpy=                  0.056993
 Thermal correction to Gibbs Free Energy=         0.007176
 Sum of electronic and zero-point Energies=           -371.493023
 Sum of electronic and thermal Energies=              -371.483739
 Sum of electronic and thermal Enthalpies=            -371.482795
 Sum of electronic and thermal Free Energies=         -371.532611
 
                     E (Thermal)             CV                S
                      KCal/Mol        Cal/Mol-Kelvin    Cal/Mol-Kelvin
 Total                   35.171             25.594            104.848
 Electronic               0.000              0.000              0.000
 Translational            0.889              2.981             39.658
 Rotational               0.889              2.981             28.754
 Vibrational             33.394             19.632             36.435
 Vibration     1          0.593              1.986              6.712
 Vibration     2          0.593              1.985              6.209
 Vibration     3          0.593              1.984              6.019
 Vibration     4          0.594              1.983              5.682
 Vibration     5          0.596              1.976              4.679
 Vibration     6          0.630              1.864              2.306
 Vibration     7          0.631              1.861              2.284
 Vibration     8          0.886              1.180              0.584
 Vibration     9          0.894              1.164              0.567
 Vibration    10          0.921              1.107              0.514
 Vibration    11          0.968              1.012              0.434
                       Q            Log10(Q)             Ln(Q)
 Total Bot       0.500101D-03         -3.300942         -7.600700
 Total V=0       0.161952D+19         18.209387         41.928663
 Vib (Bot)       0.305561D-16        -16.514903        -38.026968
 Vib (Bot)    1  0.107711D+02          1.032258          2.376863
 Vib (Bot)    2  0.835996D+01          0.922204          2.123454
 Vib (Bot)    3  0.759278D+01          0.880401          2.027198
 Vib (Bot)    4  0.640538D+01          0.806545          1.857138
 Vib (Bot)    5  0.385309D+01          0.585809          1.348874
 Vib (Bot)    6  0.110176D+01          0.042085          0.096905
 Vib (Bot)    7  0.108780D+01          0.036551          0.084161
 Vib (Bot)    8  0.300527D+00         -0.522117         -1.202219
 Vib (Bot)    9  0.294199D+00         -0.531359         -1.223499
 Vib (Bot)   10  0.273819D+00         -0.562537         -1.295288
 Vib (Bot)   11  0.242702D+00         -0.614927         -1.415922
 Vib (V=0)       0.989525D+05          4.995427         11.502395
 Vib (V=0)    1  0.112827D+02          1.052411          2.423267
 Vib (V=0)    2  0.887490D+01          0.948164          2.183227
 Vib (V=0)    3  0.810923D+01          0.908979          2.093003
 Vib (V=0)    4  0.692486D+01          0.840411          1.935118
 Vib (V=0)    5  0.438539D+01          0.642008          1.478279
 Vib (V=0)    6  0.170990D+01          0.232971          0.536437
 Vib (V=0)    7  0.169721D+01          0.229736          0.528987
 Vib (V=0)    8  0.108337D+01          0.034775          0.080073
 Vib (V=0)    9  0.108013D+01          0.033477          0.077083
 Vib (V=0)   10  0.107007D+01          0.029411          0.067722
 Vib (V=0)   11  0.105579D+01          0.023578          0.054291
 Electronic      0.100000D+01          0.000000          0.000000
 Translational   0.381456D+08          7.581445         17.456922
 Rotational      0.429057D+06          5.632515         12.969346
 ***** Axes restored to original set *****
 -------------------------------------------------------------------
 Center     Atomic                   Forces (Hartrees/Bohr)
 Number     Number              X              Y              Z
 -------------------------------------------------------------------
      1        7           0.000909195    0.000662913   -0.000558745
      2        6           0.000008970   -0.000175053    0.000341914
      3        7           0.000021765    0.000033288    0.000007304
      4        7           0.000014407    0.000008689   -0.000009617
      5        8           0.000004240   -0.000002395    0.000022649
      6        7          -0.000031525    0.000076742   -0.000075789
      7        6          -0.000037955   -0.000052481   -0.000109198
      8        1          -0.000602452   -0.000513950    0.000262590
      9        1          -0.000286643   -0.000037754    0.000118891
 -------------------------------------------------------------------
 Cartesian Forces:  Max     0.000909195 RMS     0.000307377
 FormGI is forming the generalized inverse of G from B-inverse, IUseBI=4.

 ----------------------------------------------------------------------

 Electric dipole moment (input orientation):
 (Debye = 10**-18 statcoulomb cm , SI units = C m)
                  (au)            (Debye)         (10**-30 SI)
   Tot        0.256713D+01      0.652500D+01      0.217651D+02
   x         -0.929543D+00     -0.236266D+01     -0.788100D+01
   y          0.238264D+01      0.605607D+01      0.202009D+02
   z         -0.221683D+00     -0.563463D+00     -0.187951D+01

 Dipole polarizability, Alpha (input orientation).
 (esu units = cm**3 , SI units = C**2 m**2 J**-1)
 Alpha(0;0):
               (au)            (10**-24 esu)      (10**-40 SI)
   iso        0.563113D+02      0.834447D+01      0.928447D+01
   aniso      0.555499D+02      0.823165D+01      0.915894D+01
   xx         0.542819D+02      0.804375D+01      0.894988D+01
   yx        -0.210218D+02     -0.311511D+01     -0.346603D+01
   yy         0.810293D+02      0.120073D+02      0.133599D+02
   zx        -0.326340D+01     -0.483585D+00     -0.538061D+00
   zy        -0.333017D+01     -0.493481D+00     -0.549072D+00
   zz         0.336225D+02      0.498235D+01      0.554361D+01

 ----------------------------------------------------------------------

 Dipole orientation:
     7          0.43670568          0.22999594          4.03232608
     6          1.08898758          0.91295188          2.04608838
     7         -4.17099397         -3.37603421          0.33520141
     7         -4.92792432         -3.96650919         -1.48202956
     8          1.41269319          1.23055478         -4.35487425
     7          0.70966121          0.50285222         -2.29165654
     6          1.84186964          1.69169497         -0.25578368
     1         -0.11926757         -0.35212220          5.72529771
     1          3.24984308          3.16238820         -0.47187783

 Electric dipole moment (dipole orientation):
 (Debye = 10**-18 statcoulomb cm , SI units = C m)
                  (au)            (Debye)         (10**-30 SI)
   Tot        0.256713D+01      0.652500D+01      0.217651D+02
   x          0.000000D+00      0.000000D+00      0.000000D+00
   y          0.000000D+00      0.000000D+00      0.000000D+00
   z          0.256713D+01      0.652500D+01      0.217651D+02

 Dipole polarizability, Alpha (dipole orientation).
 (esu units = cm**3 , SI units = C**2 m**2 J**-1)
 Alpha(0;0):
               (au)            (10**-24 esu)      (10**-40 SI)
   iso        0.563113D+02      0.834447D+01      0.928447D+01
   aniso      0.555499D+02      0.823165D+01      0.915894D+01
   xx         0.390351D+02      0.578441D+01      0.643603D+01
   yx         0.685957D+01      0.101648D+01      0.113099D+01
   yy         0.382703D+02      0.567108D+01      0.630993D+01
   zx        -0.447781D+01     -0.663543D+00     -0.738291D+00
   zy        -0.508683D+01     -0.753790D+00     -0.838705D+00
   zz         0.916283D+02      0.135779D+02      0.151075D+02

 ----------------------------------------------------------------------


 IN THE WOODS WE RETURN TO REASON AND FAITH.

                                 -- EMERSON
 Error termination request processed by link 9999.
 Error termination via Lnk1e in /software/kemi/g16/avx2/g16/l9999.exe at Wed Jun 23 22:49:08 2021.
 Job cpu time:       1 days 13 hours 24 minutes 34.8 seconds.
 Elapsed time:       0 days  9 hours 26 minutes 53.0 seconds.
 File lengths (MBytes):  RWF=     97 Int=      0 D2E=      0 Chk=      7 Scr=      1
