 Entering Gaussian System, Link 0=/software/kemi/g16/avx2/g16/g16
 Initial command:
 /software/kemi/g16/avx2/g16/l1.exe "/scratch/23935644/Gau-7683.inp" -scrdir="/scratch/23935644/"
 Entering Link 1 = /software/kemi/g16/avx2/g16/l1.exe PID=      7684.
  
 Copyright (c) 1988,1990,1992,1993,1995,1998,2003,2009,2016,
            Gaussian, Inc.  All Rights Reserved.
  
 This is part of the Gaussian(R) 16 program.  It is based on
 the Gaussian(R) 09 system (copyright 2009, Gaussian, Inc.),
 the Gaussian(R) 03 system (copyright 2003, Gaussian, Inc.),
 the Gaussian(R) 98 system (copyright 1998, Gaussian, Inc.),
 the Gaussian(R) 94 system (copyright 1995, Gaussian, Inc.),
 the Gaussian 92(TM) system (copyright 1992, Gaussian, Inc.),
 the Gaussian 90(TM) system (copyright 1990, Gaussian, Inc.),
 the Gaussian 88(TM) system (copyright 1988, Gaussian, Inc.),
 the Gaussian 86(TM) system (copyright 1986, Carnegie Mellon
 University), and the Gaussian 82(TM) system (copyright 1983,
 Carnegie Mellon University). Gaussian is a federally registered
 trademark of Gaussian, Inc.
  
 This software contains proprietary and confidential information,
 including trade secrets, belonging to Gaussian, Inc.
  
 This software is provided under written license and may be
 used, copied, transmitted, or stored only in accord with that
 written license.
  
 The following legend is applicable only to US Government
 contracts under FAR:
  
                    RESTRICTED RIGHTS LEGEND
  
 Use, reproduction and disclosure by the US Government is
 subject to restrictions as set forth in subparagraphs (a)
 and (c) of the Commercial Computer Software - Restricted
 Rights clause in FAR 52.227-19.
  
 Gaussian, Inc.
 340 Quinnipiac St., Bldg. 40, Wallingford CT 06492
  
  
 ---------------------------------------------------------------
 Warning -- This program may not be used in any manner that
 competes with the business of Gaussian, Inc. or will provide
 assistance to any competitor of Gaussian, Inc.  The licensee
 of this program is prohibited from giving any competitor of
 Gaussian, Inc. access to this program.  By using this program,
 the user acknowledges that Gaussian, Inc. is engaged in the
 business of creating and licensing software in the field of
 computational chemistry and represents and warrants to the
 licensee that it is not a competitor of Gaussian, Inc. and that
 it will not use this program in any manner prohibited above.
 ---------------------------------------------------------------
  

 Cite this work as:
 Gaussian 16, Revision A.03,
 M. J. Frisch, G. W. Trucks, H. B. Schlegel, G. E. Scuseria, 
 M. A. Robb, J. R. Cheeseman, G. Scalmani, V. Barone, 
 G. A. Petersson, H. Nakatsuji, X. Li, M. Caricato, A. V. Marenich, 
 J. Bloino, B. G. Janesko, R. Gomperts, B. Mennucci, H. P. Hratchian, 
 J. V. Ortiz, A. F. Izmaylov, J. L. Sonnenberg, D. Williams-Young, 
 F. Ding, F. Lipparini, F. Egidi, J. Goings, B. Peng, A. Petrone, 
 T. Henderson, D. Ranasinghe, V. G. Zakrzewski, J. Gao, N. Rega, 
 G. Zheng, W. Liang, M. Hada, M. Ehara, K. Toyota, R. Fukuda, 
 J. Hasegawa, M. Ishida, T. Nakajima, Y. Honda, O. Kitao, H. Nakai, 
 T. Vreven, K. Throssell, J. A. Montgomery, Jr., J. E. Peralta, 
 F. Ogliaro, M. J. Bearpark, J. J. Heyd, E. N. Brothers, K. N. Kudin, 
 V. N. Staroverov, T. A. Keith, R. Kobayashi, J. Normand, 
 K. Raghavachari, A. P. Rendell, J. C. Burant, S. S. Iyengar, 
 J. Tomasi, M. Cossi, J. M. Millam, M. Klene, C. Adamo, R. Cammi, 
 J. W. Ochterski, R. L. Martin, K. Morokuma, O. Farkas, 
 J. B. Foresman, and D. J. Fox, Gaussian, Inc., Wallingford CT, 2016.
 
 ******************************************
 Gaussian 16:  ES64L-G16RevA.03 25-Dec-2016
                24-Jun-2021 
 ******************************************
 %nprocshared=4
 Will use up to    4 processors via shared memory.
 %mem=8GB
 ---------------------
 #opt UwB97XD/Def2TZVP
 ---------------------
 1/18=20,19=15,26=3,38=1/1,3;
 2/9=110,12=2,17=6,18=5,40=1/2;
 3/5=44,7=101,11=2,25=1,30=1,71=1,74=-58,116=2/1,2,3;
 4//1;
 5/5=2,38=5/2;
 6/7=2,8=2,9=2,10=2,28=1/1;
 7//1,2,3,16;
 1/18=20,19=15,26=3/3(2);
 2/9=110/2;
 99//99;
 2/9=110/2;
 3/5=44,7=101,11=2,25=1,30=1,71=1,74=-58,116=2/1,2,3;
 4/5=5,16=3,69=1/1;
 5/5=2,38=5/2;
 7//1,2,3,16;
 1/18=20,19=15,26=3/3(-5);
 2/9=110/2;
 6/7=2,8=2,9=2,10=2,19=2,28=1/1;
 99/9=1/99;
 ---------------
 something title
 ---------------
 Symbolic Z-matrix:
 Charge =  0 Multiplicity = 1
 N                    -0.46616   2.37391  -0.11475 
 C                    -1.02368   1.32502   0.03887 
 N                     2.51302   0.21716   0.02413 
 N                     2.96467  -0.77218   0.01075 
 O                    -1.46163  -2.02843  -0.01291 
 N                    -0.85045  -0.98831  -0.06444 
 C                    -1.65174   0.15764   0.08207 
 H                    -0.04011   2.86848   0.6577 
 H                    -2.7206    0.08139   0.24094 
 
 Add virtual bond connecting atoms N1         and N3         Dist= 6.96D+00.
 Add virtual bond connecting atoms C2         and N3         Dist= 7.00D+00.
 Add virtual bond connecting atoms N6         and N3         Dist= 6.75D+00.

 GradGradGradGradGradGradGradGradGradGradGradGradGradGradGradGradGradGrad
 Berny optimization.
 Initialization pass.
                           ----------------------------
                           !    Initial Parameters    !
                           ! (Angstroms and Degrees)  !
 --------------------------                            --------------------------
 ! Name  Definition              Value          Derivative Info.                !
 --------------------------------------------------------------------------------
 ! R1    R(1,2)                  1.1977         estimate D2E/DX2                !
 ! R2    R(1,3)                  3.6805         estimate D2E/DX2                !
 ! R3    R(1,8)                  1.0113         estimate D2E/DX2                !
 ! R4    R(2,3)                  3.7062         estimate D2E/DX2                !
 ! R5    R(2,7)                  1.3263         estimate D2E/DX2                !
 ! R6    R(3,4)                  1.0876         estimate D2E/DX2                !
 ! R7    R(3,6)                  3.5741         estimate D2E/DX2                !
 ! R8    R(5,6)                  1.2075         estimate D2E/DX2                !
 ! R9    R(6,7)                  1.406          estimate D2E/DX2                !
 ! R10   R(7,9)                  1.0833         estimate D2E/DX2                !
 ! A1    A(2,1,8)              121.7613         estimate D2E/DX2                !
 ! A2    A(3,1,8)               85.2244         estimate D2E/DX2                !
 ! A3    A(3,2,7)              100.8892         estimate D2E/DX2                !
 ! A4    A(1,3,4)              150.3066         estimate D2E/DX2                !
 ! A5    A(1,3,6)               55.5951         estimate D2E/DX2                !
 ! A6    A(2,3,4)              131.9299         estimate D2E/DX2                !
 ! A7    A(2,3,6)               37.1439         estimate D2E/DX2                !
 ! A8    A(4,3,6)               94.8004         estimate D2E/DX2                !
 ! A9    A(3,6,5)              139.9786         estimate D2E/DX2                !
 ! A10   A(3,6,7)              105.0019         estimate D2E/DX2                !
 ! A11   A(5,6,7)              114.1526         estimate D2E/DX2                !
 ! A12   A(2,7,6)              116.3671         estimate D2E/DX2                !
 ! A13   A(2,7,9)              122.2735         estimate D2E/DX2                !
 ! A14   A(6,7,9)              121.3486         estimate D2E/DX2                !
 ! A15   L(1,2,7,3,-1)         180.349          estimate D2E/DX2                !
 ! A16   L(1,2,7,3,-2)         185.5965         estimate D2E/DX2                !
 ! D1    D(8,1,7,6)            -89.0538         estimate D2E/DX2                !
 ! D2    D(8,1,7,9)             92.6992         estimate D2E/DX2                !
 ! D3    D(8,1,3,4)            135.4208         estimate D2E/DX2                !
 ! D4    D(8,1,3,6)            130.4361         estimate D2E/DX2                !
 ! D5    D(7,2,3,4)              2.5997         estimate D2E/DX2                !
 ! D6    D(7,2,3,6)              4.5102         estimate D2E/DX2                !
 ! D7    D(3,2,7,6)             -7.7424         estimate D2E/DX2                !
 ! D8    D(3,2,7,9)            171.0743         estimate D2E/DX2                !
 ! D9    D(1,3,6,5)           -176.1455         estimate D2E/DX2                !
 ! D10   D(1,3,6,7)             -8.2269         estimate D2E/DX2                !
 ! D11   D(2,3,6,5)           -172.2437         estimate D2E/DX2                !
 ! D12   D(2,3,6,7)             -4.3251         estimate D2E/DX2                !
 ! D13   D(4,3,6,5)              6.33           estimate D2E/DX2                !
 ! D14   D(4,3,6,7)            174.2486         estimate D2E/DX2                !
 ! D15   D(3,6,7,2)              8.165          estimate D2E/DX2                !
 ! D16   D(3,6,7,9)           -170.6634         estimate D2E/DX2                !
 ! D17   D(5,6,7,2)            179.6824         estimate D2E/DX2                !
 ! D18   D(5,6,7,9)              0.8539         estimate D2E/DX2                !
 --------------------------------------------------------------------------------
 Trust Radius=3.00D-01 FncErr=1.00D-07 GrdErr=1.00D-06 EigMax=2.50D+02 EigMin=1.00D-04
 Number of steps in this run=     54 maximum allowed number of steps=    100.
 GradGradGradGradGradGradGradGradGradGradGradGradGradGradGradGradGradGrad

                          Input orientation:                          
 ---------------------------------------------------------------------
 Center     Atomic      Atomic             Coordinates (Angstroms)
 Number     Number       Type             X           Y           Z
 ---------------------------------------------------------------------
      1          7           0       -0.466160    2.373910   -0.114750
      2          6           0       -1.023680    1.325020    0.038870
      3          7           0        2.513020    0.217160    0.024130
      4          7           0        2.964670   -0.772180    0.010750
      5          8           0       -1.461630   -2.028430   -0.012910
      6          7           0       -0.850450   -0.988310   -0.064440
      7          6           0       -1.651740    0.157640    0.082070
      8          1           0       -0.040110    2.868480    0.657700
      9          1           0       -2.720600    0.081390    0.240940
 ---------------------------------------------------------------------
                    Distance matrix (angstroms):
                    1          2          3          4          5
     1  N    0.000000
     2  C    1.197747   0.000000
     3  N    3.680540   3.706186   0.000000
     4  N    4.656633   4.506215   1.087640   0.000000
     5  O    4.514635   3.382323   4.565292   4.601180   0.000000
     6  N    3.384484   2.322106   3.574064   3.821977   1.207496
     7  C    2.521149   1.326311   4.165588   4.709660   2.196375
     8  H    1.011334   1.932001   3.734887   4.764625   5.142972
     9  H    3.234913   2.113524   5.239868   5.753596   2.469977
                    6          7          8          9
     6  N    0.000000
     7  C    1.405963   0.000000
     8  H    4.006615   3.205831   0.000000
     9  H    2.176000   1.083289   3.889291   0.000000
 Stoichiometry    C2H2N4O
 Framework group  C1[X(C2H2N4O)]
 Deg. of freedom    21
 Full point group                 C1      NOp   1
 Largest Abelian subgroup         C1      NOp   1
 Largest concise Abelian subgroup C1      NOp   1
                         Standard orientation:                         
 ---------------------------------------------------------------------
 Center     Atomic      Atomic             Coordinates (Angstroms)
 Number     Number       Type             X           Y           Z
 ---------------------------------------------------------------------
      1          7           0       -0.452789    2.341185   -0.148522
      2          6           0       -1.004046    1.290463    0.014869
      3          7           0        2.539377    0.204201    0.014613
      4          7           0        2.997084   -0.782437    0.011441
      5          8           0       -1.421421   -2.065954   -0.004290
      6          7           0       -0.816560   -1.022668   -0.065456
      7          6           0       -1.625000    0.119739    0.068943
      8          1           0       -0.030596    2.845942    0.619443
      9          1           0       -2.693543    0.038511    0.227480
 ---------------------------------------------------------------------
 Rotational constants (GHZ):           2.5533969           1.6173323           0.9934608
 Standard basis: def2TZVP (5D, 7F)
 There are   264 symmetry adapted cartesian basis functions of A   symmetry.
 There are   229 symmetry adapted basis functions of A   symmetry.
   229 basis functions,   373 primitive gaussians,   264 cartesian basis functions
    25 alpha electrons       25 beta electrons
       nuclear repulsion energy       229.6589082230 Hartrees.
 NAtoms=    9 NActive=    9 NUniq=    9 SFac= 1.00D+00 NAtFMM=   60 NAOKFM=F Big=F
 Integral buffers will be    131072 words long.
 Raffenetti 2 integral format.
 Two-electron integral symmetry is turned on.
 Nuclear repulsion after empirical dispersion term =      229.6566664213 Hartrees.
 One-electron integrals computed using PRISM.
   1 Symmetry operations used in ECPInt.
 ECPInt:  NShTT=    3655 NPrTT=   11788 LenC2=    3475 LenP2D=    8594.
 LDataN:  DoStor=T MaxTD1= 6 Len=  172
 NBasis=   229 RedAO= T EigKep=  7.13D-05  NBF=   229
 NBsUse=   229 1.00D-06 EigRej= -1.00D+00 NBFU=   229
 ExpMin= 9.52D-02 ExpMax= 2.70D+04 ExpMxC= 9.22D+02 IAcc=3 IRadAn=         5 AccDes= 0.00D+00
 Harris functional with IExCor= 4639 and IRadAn=       5 diagonalized for initial guess.
 HarFok:  IExCor= 4639 AccDes= 0.00D+00 IRadAn=         5 IDoV= 1 UseB2=F ITyADJ=14
 ICtDFT=  3500011 ScaDFX=  1.000000  1.000000  1.000000  1.000000
 FoFCou: FMM=F IPFlag=           0 FMFlag=      100000 FMFlg1=           0
         NFxFlg=           0 DoJE=T BraDBF=F KetDBF=T FulRan=T
         wScrn=  0.000000 ICntrl=       500 IOpCl=  0 I1Cent=   200000004 NGrid=           0
         NMat0=    1 NMatS0=      1 NMatT0=    0 NMatD0=    1 NMtDS0=    0 NMtDT0=    0
 Petite list used in FoFCou.
 Initial guess <Sx>= 0.0000 <Sy>= 0.0000 <Sz>= 0.0000 <S**2>=-0.0000 S=-0.0000
 Requested convergence on RMS density matrix=1.00D-08 within 128 cycles.
 Requested convergence on MAX density matrix=1.00D-06.
 Requested convergence on             energy=1.00D-06.
 No special actions if energy rises.
 Integral accuracy reduced to 1.0D-05 until final iterations.
 Initial convergence to 1.0D-05 achieved.  Increase integral accuracy.
 SCF Done:  E(UwB97XD) =  -371.550885893     A.U. after   19 cycles
            NFock= 19  Conv=0.56D-08     -V/T= 2.0038
 <Sx>= 0.0000 <Sy>= 0.0000 <Sz>= 0.0000 <S**2>=-0.0000 S=-0.0000
 <L.S>=  0.00000000000    
 Annihilation of the first spin contaminant:
 S**2 before annihilation    -0.0000,   after    -0.0000

 **********************************************************************

            Population analysis using the SCF density.

 **********************************************************************

 Orbital symmetries:
 Alpha Orbitals:
       Occupied  (A) (A) (A) (A) (A) (A) (A) (A) (A) (A) (A) (A)
                 (A) (A) (A) (A) (A) (A) (A) (A) (A) (A) (A) (A)
                 (A)
       Virtual   (A) (A) (A) (A) (A) (A) (A) (A) (A) (A) (A) (A)
                 (A) (A) (A) (A) (A) (A) (A) (A) (A) (A) (A) (A)
                 (A) (A) (A) (A) (A) (A) (A) (A) (A) (A) (A) (A)
                 (A) (A) (A) (A) (A) (A) (A) (A) (A) (A) (A) (A)
                 (A) (A) (A) (A) (A) (A) (A) (A) (A) (A) (A) (A)
                 (A) (A) (A) (A) (A) (A) (A) (A) (A) (A) (A) (A)
                 (A) (A) (A) (A) (A) (A) (A) (A) (A) (A) (A) (A)
                 (A) (A) (A) (A) (A) (A) (A) (A) (A) (A) (A) (A)
                 (A) (A) (A) (A) (A) (A) (A) (A) (A) (A) (A) (A)
                 (A) (A) (A) (A) (A) (A) (A) (A) (A) (A) (A) (A)
                 (A) (A) (A) (A) (A) (A) (A) (A) (A) (A) (A) (A)
                 (A) (A) (A) (A) (A) (A) (A) (A) (A) (A) (A) (A)
                 (A) (A) (A) (A) (A) (A) (A) (A) (A) (A) (A) (A)
                 (A) (A) (A) (A) (A) (A) (A) (A) (A) (A) (A) (A)
                 (A) (A) (A) (A) (A) (A) (A) (A) (A) (A) (A) (A)
                 (A) (A) (A) (A) (A) (A) (A) (A) (A) (A) (A) (A)
                 (A) (A) (A) (A) (A) (A) (A) (A) (A) (A) (A) (A)
 Beta  Orbitals:
       Occupied  (A) (A) (A) (A) (A) (A) (A) (A) (A) (A) (A) (A)
                 (A) (A) (A) (A) (A) (A) (A) (A) (A) (A) (A) (A)
                 (A)
       Virtual   (A) (A) (A) (A) (A) (A) (A) (A) (A) (A) (A) (A)
                 (A) (A) (A) (A) (A) (A) (A) (A) (A) (A) (A) (A)
                 (A) (A) (A) (A) (A) (A) (A) (A) (A) (A) (A) (A)
                 (A) (A) (A) (A) (A) (A) (A) (A) (A) (A) (A) (A)
                 (A) (A) (A) (A) (A) (A) (A) (A) (A) (A) (A) (A)
                 (A) (A) (A) (A) (A) (A) (A) (A) (A) (A) (A) (A)
                 (A) (A) (A) (A) (A) (A) (A) (A) (A) (A) (A) (A)
                 (A) (A) (A) (A) (A) (A) (A) (A) (A) (A) (A) (A)
                 (A) (A) (A) (A) (A) (A) (A) (A) (A) (A) (A) (A)
                 (A) (A) (A) (A) (A) (A) (A) (A) (A) (A) (A) (A)
                 (A) (A) (A) (A) (A) (A) (A) (A) (A) (A) (A) (A)
                 (A) (A) (A) (A) (A) (A) (A) (A) (A) (A) (A) (A)
                 (A) (A) (A) (A) (A) (A) (A) (A) (A) (A) (A) (A)
                 (A) (A) (A) (A) (A) (A) (A) (A) (A) (A) (A) (A)
                 (A) (A) (A) (A) (A) (A) (A) (A) (A) (A) (A) (A)
                 (A) (A) (A) (A) (A) (A) (A) (A) (A) (A) (A) (A)
                 (A) (A) (A) (A) (A) (A) (A) (A) (A) (A) (A) (A)
 The electronic state is 1-A.
 Alpha  occ. eigenvalues --  -19.28613 -14.54771 -14.53069 -14.52867 -14.50059
 Alpha  occ. eigenvalues --  -10.40707 -10.33551  -1.25310  -1.22804  -1.09057
 Alpha  occ. eigenvalues --   -0.93985  -0.77690  -0.70469  -0.64123  -0.63123
 Alpha  occ. eigenvalues --   -0.59725  -0.55419  -0.55309  -0.55264  -0.51905
 Alpha  occ. eigenvalues --   -0.51364  -0.49807  -0.48320  -0.35278  -0.31010
 Alpha virt. eigenvalues --   -0.01676   0.02364   0.06153   0.06226   0.08932
 Alpha virt. eigenvalues --    0.11018   0.15296   0.19020   0.22616   0.27070
 Alpha virt. eigenvalues --    0.27480   0.31566   0.31916   0.33025   0.35271
 Alpha virt. eigenvalues --    0.36268   0.37203   0.38163   0.38764   0.41610
 Alpha virt. eigenvalues --    0.43452   0.45265   0.45735   0.47744   0.48113
 Alpha virt. eigenvalues --    0.50394   0.50764   0.53027   0.53443   0.55555
 Alpha virt. eigenvalues --    0.56407   0.58273   0.59788   0.62189   0.65610
 Alpha virt. eigenvalues --    0.66708   0.67015   0.68202   0.72249   0.73562
 Alpha virt. eigenvalues --    0.79107   0.83776   0.85932   0.88888   0.91979
 Alpha virt. eigenvalues --    0.92943   0.94199   0.99751   1.06463   1.09227
 Alpha virt. eigenvalues --    1.14332   1.16899   1.18462   1.19575   1.20764
 Alpha virt. eigenvalues --    1.23762   1.28899   1.31157   1.33533   1.35970
 Alpha virt. eigenvalues --    1.37149   1.41617   1.44240   1.47851   1.49210
 Alpha virt. eigenvalues --    1.51162   1.53054   1.56735   1.59361   1.60407
 Alpha virt. eigenvalues --    1.62435   1.68245   1.73091   1.76011   1.77134
 Alpha virt. eigenvalues --    1.78899   1.83764   1.85654   1.89921   1.90790
 Alpha virt. eigenvalues --    1.96593   2.00913   2.02080   2.02575   2.05580
 Alpha virt. eigenvalues --    2.09541   2.11926   2.13880   2.15637   2.18312
 Alpha virt. eigenvalues --    2.19314   2.26572   2.28230   2.31525   2.33489
 Alpha virt. eigenvalues --    2.34484   2.37275   2.44049   2.51895   2.53474
 Alpha virt. eigenvalues --    2.64117   2.65421   2.66106   2.67874   2.70687
 Alpha virt. eigenvalues --    2.74285   2.78161   2.79569   2.83561   2.84390
 Alpha virt. eigenvalues --    2.85349   2.92887   2.98360   2.99984   3.01362
 Alpha virt. eigenvalues --    3.01500   3.05817   3.09434   3.13489   3.19334
 Alpha virt. eigenvalues --    3.20880   3.27010   3.33225   3.41093   3.45049
 Alpha virt. eigenvalues --    3.52099   3.55619   3.56093   3.61830   3.63027
 Alpha virt. eigenvalues --    3.64646   3.68778   3.68977   3.70818   3.72253
 Alpha virt. eigenvalues --    3.73658   3.81038   3.99251   4.00023   4.03527
 Alpha virt. eigenvalues --    4.13012   4.17894   4.17943   4.20685   4.24307
 Alpha virt. eigenvalues --    4.27001   4.32564   4.40929   4.44411   4.45634
 Alpha virt. eigenvalues --    4.49231   4.57714   4.57987   4.58734   4.60397
 Alpha virt. eigenvalues --    4.60722   4.61998   4.64680   4.72699   4.74084
 Alpha virt. eigenvalues --    4.76101   4.77270   4.80713   5.02760   5.02815
 Alpha virt. eigenvalues --    5.03419   5.05104   5.07923   5.09094   5.10069
 Alpha virt. eigenvalues --    5.10706   5.12188   5.21706   5.22041   5.26081
 Alpha virt. eigenvalues --    5.27533   5.38666   5.42758   5.49008   5.63994
 Alpha virt. eigenvalues --    5.68493   5.70929   5.75001   5.92478   6.07128
 Alpha virt. eigenvalues --    6.28908   6.36365   6.37006   6.37741   6.41526
 Alpha virt. eigenvalues --    6.42298   6.62697   6.66983   6.95585   7.11061
 Alpha virt. eigenvalues --    7.21183   7.47706  22.84109  23.42434  31.35271
 Alpha virt. eigenvalues --   32.14539  32.18391  32.20869  43.96851
  Beta  occ. eigenvalues --  -19.28613 -14.54771 -14.53069 -14.52867 -14.50059
  Beta  occ. eigenvalues --  -10.40707 -10.33551  -1.25310  -1.22804  -1.09057
  Beta  occ. eigenvalues --   -0.93985  -0.77690  -0.70469  -0.64123  -0.63123
  Beta  occ. eigenvalues --   -0.59725  -0.55419  -0.55309  -0.55264  -0.51905
  Beta  occ. eigenvalues --   -0.51364  -0.49807  -0.48320  -0.35278  -0.31010
  Beta virt. eigenvalues --   -0.01676   0.02364   0.06153   0.06226   0.08932
  Beta virt. eigenvalues --    0.11018   0.15296   0.19020   0.22616   0.27070
  Beta virt. eigenvalues --    0.27480   0.31566   0.31916   0.33025   0.35271
  Beta virt. eigenvalues --    0.36268   0.37203   0.38163   0.38764   0.41610
  Beta virt. eigenvalues --    0.43452   0.45265   0.45735   0.47744   0.48113
  Beta virt. eigenvalues --    0.50394   0.50764   0.53027   0.53443   0.55555
  Beta virt. eigenvalues --    0.56407   0.58273   0.59788   0.62189   0.65610
  Beta virt. eigenvalues --    0.66708   0.67015   0.68202   0.72249   0.73562
  Beta virt. eigenvalues --    0.79107   0.83776   0.85932   0.88888   0.91979
  Beta virt. eigenvalues --    0.92943   0.94199   0.99751   1.06463   1.09227
  Beta virt. eigenvalues --    1.14332   1.16899   1.18462   1.19575   1.20764
  Beta virt. eigenvalues --    1.23762   1.28899   1.31157   1.33533   1.35970
  Beta virt. eigenvalues --    1.37149   1.41617   1.44240   1.47851   1.49210
  Beta virt. eigenvalues --    1.51162   1.53054   1.56735   1.59361   1.60407
  Beta virt. eigenvalues --    1.62435   1.68245   1.73091   1.76011   1.77134
  Beta virt. eigenvalues --    1.78899   1.83764   1.85654   1.89921   1.90790
  Beta virt. eigenvalues --    1.96593   2.00913   2.02080   2.02575   2.05580
  Beta virt. eigenvalues --    2.09541   2.11926   2.13880   2.15637   2.18312
  Beta virt. eigenvalues --    2.19314   2.26572   2.28230   2.31525   2.33489
  Beta virt. eigenvalues --    2.34484   2.37275   2.44049   2.51895   2.53474
  Beta virt. eigenvalues --    2.64117   2.65421   2.66106   2.67874   2.70687
  Beta virt. eigenvalues --    2.74285   2.78161   2.79569   2.83561   2.84390
  Beta virt. eigenvalues --    2.85349   2.92887   2.98360   2.99984   3.01362
  Beta virt. eigenvalues --    3.01500   3.05817   3.09434   3.13489   3.19334
  Beta virt. eigenvalues --    3.20880   3.27010   3.33225   3.41093   3.45049
  Beta virt. eigenvalues --    3.52099   3.55619   3.56093   3.61830   3.63027
  Beta virt. eigenvalues --    3.64646   3.68778   3.68977   3.70818   3.72253
  Beta virt. eigenvalues --    3.73658   3.81038   3.99251   4.00023   4.03527
  Beta virt. eigenvalues --    4.13012   4.17894   4.17943   4.20685   4.24307
  Beta virt. eigenvalues --    4.27001   4.32564   4.40929   4.44411   4.45634
  Beta virt. eigenvalues --    4.49231   4.57714   4.57987   4.58734   4.60397
  Beta virt. eigenvalues --    4.60722   4.61998   4.64680   4.72699   4.74084
  Beta virt. eigenvalues --    4.76101   4.77270   4.80713   5.02760   5.02815
  Beta virt. eigenvalues --    5.03419   5.05104   5.07923   5.09094   5.10069
  Beta virt. eigenvalues --    5.10706   5.12188   5.21706   5.22041   5.26081
  Beta virt. eigenvalues --    5.27533   5.38666   5.42758   5.49008   5.63994
  Beta virt. eigenvalues --    5.68493   5.70929   5.75001   5.92478   6.07128
  Beta virt. eigenvalues --    6.28908   6.36365   6.37006   6.37741   6.41526
  Beta virt. eigenvalues --    6.42298   6.62697   6.66983   6.95585   7.11061
  Beta virt. eigenvalues --    7.21183   7.47706  22.84109  23.42434  31.35271
  Beta virt. eigenvalues --   32.14539  32.18391  32.20869  43.96851
          Condensed to atoms (all electrons):
               1          2          3          4          5          6
     1  N    6.273234   0.666977  -0.000783   0.000090   0.000028  -0.002249
     2  C    0.666977   4.822644   0.000689  -0.000193   0.013678  -0.034223
     3  N   -0.000783   0.000689   6.340799   0.663023  -0.000171   0.001870
     4  N    0.000090  -0.000193   0.663023   6.333357   0.000072  -0.000808
     5  O    0.000028   0.013678  -0.000171   0.000072   8.118125   0.231719
     6  N   -0.002249  -0.034223   0.001870  -0.000808   0.231719   6.455902
     7  C   -0.050621   0.496383   0.000516   0.000302  -0.091616   0.307575
     8  H    0.347723  -0.045505   0.000174  -0.000032   0.000023  -0.000165
     9  H   -0.002006  -0.026458   0.000030   0.000001   0.015316  -0.020632
               7          8          9
     1  N   -0.050621   0.347723  -0.002006
     2  C    0.496383  -0.045505  -0.026458
     3  N    0.000516   0.000174   0.000030
     4  N    0.000302  -0.000032   0.000001
     5  O   -0.091616   0.000023   0.015316
     6  N    0.307575  -0.000165  -0.020632
     7  C    5.042221  -0.002935   0.386961
     8  H   -0.002935   0.411412  -0.000123
     9  H    0.386961  -0.000123   0.493047
          Atomic-Atomic Spin Densities.
               1          2          3          4          5          6
     1  N    0.000000  -0.000000  -0.000000   0.000000  -0.000000  -0.000000
     2  C   -0.000000  -0.000000   0.000000  -0.000000   0.000000  -0.000000
     3  N   -0.000000   0.000000   0.000000   0.000000   0.000000  -0.000000
     4  N    0.000000  -0.000000   0.000000  -0.000000  -0.000000  -0.000000
     5  O   -0.000000   0.000000   0.000000  -0.000000  -0.000000   0.000000
     6  N   -0.000000  -0.000000  -0.000000  -0.000000   0.000000  -0.000000
     7  C    0.000000   0.000000   0.000000  -0.000000  -0.000000   0.000000
     8  H   -0.000000   0.000000  -0.000000   0.000000  -0.000000  -0.000000
     9  H   -0.000000   0.000000  -0.000000   0.000000   0.000000  -0.000000
               7          8          9
     1  N    0.000000  -0.000000  -0.000000
     2  C    0.000000   0.000000   0.000000
     3  N    0.000000  -0.000000  -0.000000
     4  N   -0.000000   0.000000   0.000000
     5  O   -0.000000  -0.000000   0.000000
     6  N    0.000000  -0.000000  -0.000000
     7  C    0.000000  -0.000000  -0.000000
     8  H   -0.000000  -0.000000  -0.000000
     9  H   -0.000000  -0.000000  -0.000000
 Mulliken charges and spin densities:
               1          2
     1  N   -0.232392   0.000000
     2  C    0.106008  -0.000000
     3  N   -0.006148   0.000000
     4  N    0.004188  -0.000000
     5  O   -0.287173   0.000000
     6  N    0.061011  -0.000000
     7  C   -0.088786   0.000000
     8  H    0.289427  -0.000000
     9  H    0.153866   0.000000
 Sum of Mulliken charges =  -0.00000  -0.00000
 Mulliken charges and spin densities with hydrogens summed into heavy atoms:
               1          2
     1  N    0.057035   0.000000
     2  C    0.106008  -0.000000
     3  N   -0.006148   0.000000
     4  N    0.004188  -0.000000
     5  O   -0.287173   0.000000
     6  N    0.061011  -0.000000
     7  C    0.065080   0.000000
 Electronic spatial extent (au):  <R**2>=           1023.1835
 Charge=             -0.0000 electrons
 Dipole moment (field-independent basis, Debye):
    X=             -0.3027    Y=              3.9725    Z=              1.5232  Tot=              4.2653
 Quadrupole moment (field-independent basis, Debye-Ang):
   XX=            -36.5405   YY=            -40.1729   ZZ=            -37.8275
   XY=             -2.0070   XZ=             -0.3200   YZ=              4.1034
 Traceless Quadrupole moment (field-independent basis, Debye-Ang):
   XX=              1.6398   YY=             -1.9926   ZZ=              0.3528
   XY=             -2.0070   XZ=             -0.3200   YZ=              4.1034
 Octapole moment (field-independent basis, Debye-Ang**2):
  XXX=             -4.8647  YYY=             21.4769  ZZZ=              1.0549  XYY=              8.3041
  XXY=              6.2025  XXZ=              1.0048  XZZ=              2.5259  YZZ=             -2.2158
  YYZ=             12.5475  XYZ=             -0.5599
 Hexadecapole moment (field-independent basis, Debye-Ang**3):
 XXXX=           -732.2210 YYYY=           -469.5264 ZZZZ=            -38.1393 XXXY=             10.3679
 XXXZ=             -3.6846 YYYX=              5.0403 YYYZ=             37.2922 ZZZX=              0.6999
 ZZZY=              4.4609 XXYY=           -229.2843 XXZZ=           -131.5100 YYZZ=            -82.7056
 XXYZ=              1.7074 YYXZ=             -0.6732 ZZXY=              4.6258
 N-N= 2.296566664213D+02 E-N=-1.329268444346D+03  KE= 3.701262521188D+02
                          Isotropic Fermi Contact Couplings
        Atom                 a.u.       MegaHertz       Gauss      10(-4) cm-1
     1  N(14)             -0.00000      -0.00000      -0.00000      -0.00000
     2  C(13)             -0.00000      -0.00000      -0.00000      -0.00000
     3  N(14)              0.00000       0.00000       0.00000       0.00000
     4  N(14)              0.00000       0.00000       0.00000       0.00000
     5  O(17)             -0.00000       0.00000       0.00000       0.00000
     6  N(14)             -0.00000      -0.00000      -0.00000      -0.00000
     7  C(13)              0.00000       0.00000       0.00000       0.00000
     8  H(1)              -0.00000      -0.00000      -0.00000      -0.00000
     9  H(1)              -0.00000      -0.00000      -0.00000      -0.00000
 --------------------------------------------------------
       Center         ----  Spin Dipole Couplings  ----
                      3XX-RR        3YY-RR        3ZZ-RR
 --------------------------------------------------------
     1   Atom        0.000000     -0.000000     -0.000000
     2   Atom       -0.000000     -0.000000      0.000000
     3   Atom       -0.000000      0.000000     -0.000000
     4   Atom        0.000000     -0.000000      0.000000
     5   Atom        0.000000     -0.000000      0.000000
     6   Atom       -0.000000     -0.000000      0.000000
     7   Atom       -0.000000      0.000000     -0.000000
     8   Atom       -0.000000     -0.000000      0.000000
     9   Atom        0.000000     -0.000000      0.000000
 --------------------------------------------------------
                        XY            XZ            YZ
 --------------------------------------------------------
     1   Atom        0.000000     -0.000000     -0.000000
     2   Atom       -0.000000      0.000000      0.000000
     3   Atom       -0.000000     -0.000000      0.000000
     4   Atom        0.000000      0.000000     -0.000000
     5   Atom        0.000000      0.000000      0.000000
     6   Atom        0.000000      0.000000     -0.000000
     7   Atom        0.000000      0.000000     -0.000000
     8   Atom        0.000000      0.000000      0.000000
     9   Atom       -0.000000      0.000000      0.000000
 --------------------------------------------------------


 ---------------------------------------------------------------------------------
              Anisotropic Spin Dipole Couplings in Principal Axis System
 ---------------------------------------------------------------------------------

       Atom             a.u.   MegaHertz   Gauss  10(-4) cm-1        Axes

              Baa    -0.0000    -0.000    -0.000    -0.000  0.1032  0.8067  0.5819
     1 N(14)  Bbb    -0.0000    -0.000    -0.000    -0.000  0.6465 -0.4990  0.5771
              Bcc     0.0000     0.000     0.000     0.000  0.7559  0.3167 -0.5730
 
              Baa    -0.0000    -0.000    -0.000    -0.000  0.4167  0.9047 -0.0888
     2 C(13)  Bbb     0.0000     0.000     0.000     0.000  0.9045 -0.4224 -0.0586
              Bcc     0.0000     0.000     0.000     0.000  0.0906  0.0558  0.9943
 
              Baa    -0.0000    -0.000    -0.000    -0.000  0.8585  0.4272  0.2836
     3 N(14)  Bbb    -0.0000    -0.000    -0.000    -0.000 -0.2382 -0.1576  0.9584
              Bcc     0.0000     0.000     0.000     0.000 -0.4541  0.8903  0.0335
 
              Baa    -0.0000    -0.000    -0.000    -0.000 -0.4453  0.8909  0.0897
     4 N(14)  Bbb     0.0000     0.000     0.000     0.000 -0.4311 -0.3011  0.8506
              Bcc     0.0000     0.000     0.000     0.000  0.7848  0.3400  0.5182
 
              Baa    -0.0000     0.000     0.000     0.000 -0.5083  0.8611  0.0141
     5 O(17)  Bbb     0.0000    -0.000    -0.000    -0.000 -0.4474 -0.2780  0.8500
              Bcc     0.0000    -0.000    -0.000    -0.000  0.7359  0.4257  0.5266
 
              Baa    -0.0000    -0.000    -0.000    -0.000  0.7447 -0.6578 -0.1125
     6 N(14)  Bbb     0.0000     0.000     0.000     0.000  0.3309  0.2176  0.9182
              Bcc     0.0000     0.000     0.000     0.000  0.5796  0.7211 -0.3797
 
              Baa    -0.0000    -0.000    -0.000    -0.000 -0.5863  0.2467  0.7716
     7 C(13)  Bbb    -0.0000    -0.000    -0.000    -0.000  0.7331 -0.2438  0.6349
              Bcc     0.0000     0.000     0.000     0.000  0.3447  0.9379 -0.0379
 
              Baa    -0.0000    -0.000    -0.000    -0.000  0.8555 -0.5150  0.0529
     8 H(1)   Bbb    -0.0000    -0.000    -0.000    -0.000  0.4541  0.6973 -0.5546
              Bcc     0.0000     0.000     0.000     0.000  0.2488  0.4985  0.8304
 
              Baa    -0.0000    -0.000    -0.000    -0.000  0.3353  0.9420 -0.0166
     9 H(1)   Bbb     0.0000     0.000     0.000     0.000  0.9385 -0.3355 -0.0818
              Bcc     0.0000     0.000     0.000     0.000  0.0826 -0.0118  0.9965
 

 ---------------------------------------------------------------------------------

   1 Symmetry operations used in ECPInt.
 ECPInt:  NShTT=    3655 NPrTT=   11788 LenC2=    3475 LenP2D=    8594.
 LDataN:  DoStor=T MaxTD1= 7 Len=  274
 Calling FoFJK, ICntrl=      2127 FMM=F ISym2X=0 I1Cent= 0 IOpClX= 1 NMat=1 NMatS=1 NMatT=0.
 ***** Axes restored to original set *****
 -------------------------------------------------------------------
 Center     Atomic                   Forces (Hartrees/Bohr)
 Number     Number              X              Y              Z
 -------------------------------------------------------------------
      1        7          -0.000661446   -0.000362315   -0.001465454
      2        6           0.000053373   -0.000087560    0.000192705
      3        7           0.000005706   -0.000035823    0.000368967
      4        7           0.000038923    0.000030901   -0.000215675
      5        8          -0.000074678   -0.000069122    0.000166220
      6        7          -0.000088886   -0.000032647   -0.000454735
      7        6           0.000033290   -0.000176233    0.000312094
      8        1           0.000666840    0.000722590    0.001162129
      9        1           0.000026878    0.000010208   -0.000066251
 -------------------------------------------------------------------
 Cartesian Forces:  Max     0.001465454 RMS     0.000457704

 GradGradGradGradGradGradGradGradGradGradGradGradGradGradGradGradGradGrad
 Berny optimization.
 FormGI is forming the generalized inverse of G from B-inverse, IUseBI=4.
 Internal  Forces:  Max     0.001521050 RMS     0.000249082
 Search for a local minimum.
 Step number   1 out of a maximum of   54
 All quantities printed in internal units (Hartrees-Bohrs-Radians)
 Mixed Optimization -- En-DIIS/RFO-DIIS
 Second derivative matrix not updated -- first step.
 ITU=  0
     Eigenvalues ---    0.00244   0.00591   0.00925   0.01096   0.01251
     Eigenvalues ---    0.01643   0.01715   0.04669   0.04942   0.10404
     Eigenvalues ---    0.15991   0.21328   0.24142   0.24932   0.35600
     Eigenvalues ---    0.42911   0.45750   0.57500   1.01145   1.02915
     Eigenvalues ---    1.89791
 RFO step:  Lambda=-2.83858627D-05 EMin= 2.44126377D-03
 Linear search not attempted -- first point.
 Iteration  1 RMS(Cart)=  0.00642357 RMS(Int)=  0.00010518
 Iteration  2 RMS(Cart)=  0.00008064 RMS(Int)=  0.00004568
 Iteration  3 RMS(Cart)=  0.00000001 RMS(Int)=  0.00004568
 Variable       Old X    -DE/DX   Delta X   Delta X   Delta X     New X
                                 (Linear)    (Quad)   (Total)
    R1        2.26341   0.00031   0.00000   0.00038   0.00041   2.26383
    R2        6.95521   0.00014   0.00000   0.00928   0.00928   6.96449
    R3        1.91114   0.00152   0.00000   0.00332   0.00332   1.91447
    R4        7.00368  -0.00012   0.00000  -0.00342  -0.00345   7.00023
    R5        2.50637   0.00019   0.00000   0.00043   0.00045   2.50681
    R6        2.05534  -0.00001   0.00000  -0.00001  -0.00001   2.05534
    R7        6.75400   0.00009   0.00000   0.00038   0.00038   6.75439
    R8        2.28184   0.00010   0.00000   0.00010   0.00010   2.28194
    R9        2.65689  -0.00001   0.00000  -0.00005  -0.00003   2.65686
   R10        2.04712  -0.00004   0.00000  -0.00010  -0.00010   2.04702
    A1        2.12513  -0.00019   0.00000  -0.00094  -0.00093   2.12420
    A2        1.48745  -0.00003   0.00000  -0.00031  -0.00029   1.48715
    A3        1.76085  -0.00005   0.00000  -0.00021  -0.00023   1.76062
    A4        2.62334   0.00006   0.00000  -0.00135  -0.00158   2.62177
    A5        0.97032   0.00008   0.00000  -0.00036  -0.00038   0.96994
    A6        2.30261   0.00003   0.00000   0.00112   0.00120   2.30381
    A7        0.64828   0.00005   0.00000   0.00030   0.00031   0.64859
    A8        1.65458  -0.00002   0.00000   0.00051   0.00067   1.65525
    A9        2.44309   0.00006   0.00000  -0.00009  -0.00012   2.44297
   A10        1.83263  -0.00010   0.00000  -0.00174  -0.00177   1.83086
   A11        1.99234   0.00001   0.00000  -0.00041  -0.00044   1.99190
   A12        2.03099   0.00009   0.00000   0.00035   0.00035   2.03134
   A13        2.13408  -0.00005   0.00000  -0.00015  -0.00016   2.13391
   A14        2.11793  -0.00004   0.00000  -0.00007  -0.00008   2.11785
   A15        3.14768   0.00005   0.00000   0.00536   0.00535   3.15303
   A16        3.23927   0.00019   0.00000   0.01017   0.01018   3.24945
    D1       -1.55428  -0.00009   0.00000  -0.00996  -0.00996  -1.56424
    D2        1.61791   0.00008   0.00000   0.00322   0.00323   1.62114
    D3        2.36354   0.00018   0.00000   0.05338   0.05334   2.41688
    D4        2.27654   0.00000   0.00000   0.01116   0.01119   2.28773
    D5        0.04537   0.00003   0.00000   0.02529   0.02532   0.07069
    D6        0.07872   0.00004   0.00000   0.00485   0.00485   0.08357
    D7       -0.13513  -0.00009   0.00000  -0.00845  -0.00846  -0.14359
    D8        2.98581  -0.00002   0.00000  -0.00099  -0.00099   2.98481
    D9       -3.07432   0.00001   0.00000   0.00523   0.00523  -3.06909
   D10       -0.14359  -0.00014   0.00000  -0.01039  -0.01039  -0.15397
   D11       -3.00622   0.00010   0.00000   0.01098   0.01098  -2.99524
   D12       -0.07549  -0.00005   0.00000  -0.00464  -0.00463  -0.08012
   D13        0.11048   0.00009   0.00000   0.02626   0.02627   0.13675
   D14        3.04121  -0.00005   0.00000   0.01064   0.01066   3.05187
   D15        0.14251   0.00009   0.00000   0.00878   0.00878   0.15128
   D16       -2.97864   0.00002   0.00000   0.00139   0.00139  -2.97725
   D17        3.13605  -0.00000   0.00000  -0.00209  -0.00208   3.13396
   D18        0.01490  -0.00007   0.00000  -0.00948  -0.00947   0.00543
         Item               Value     Threshold  Converged?
 Maximum Force            0.001521     0.000450     NO 
 RMS     Force            0.000249     0.000300     YES
 Maximum Displacement     0.024478     0.001800     NO 
 RMS     Displacement     0.006425     0.001200     NO 
 Predicted change in Energy=-1.410170D-05
 GradGradGradGradGradGradGradGradGradGradGradGradGradGradGradGradGradGrad

                          Input orientation:                          
 ---------------------------------------------------------------------
 Center     Atomic      Atomic             Coordinates (Angstroms)
 Number     Number       Type             X           Y           Z
 ---------------------------------------------------------------------
      1          7           0       -0.469358    2.374469   -0.118083
      2          6           0       -1.021467    1.323994    0.045633
      3          7           0        2.512887    0.214686    0.037083
      4          7           0        2.965305   -0.773816    0.003360
      5          8           0       -1.462818   -2.029032   -0.017460
      6          7           0       -0.850766   -0.989398   -0.069714
      7          6           0       -1.650121    0.156587    0.086634
      8          1           0       -0.041199    2.876480    0.650697
      9          1           0       -2.719143    0.080711    0.244209
 ---------------------------------------------------------------------
                    Distance matrix (angstroms):
                    1          2          3          4          5
     1  N    0.000000
     2  C    1.197966   0.000000
     3  N    3.685448   3.704362   0.000000
     4  N    4.660832   4.505213   1.087637   0.000000
     5  O    4.515297   3.382537   4.565466   4.602638   0.000000
     6  N    3.385766   2.322548   3.574267   3.822854   1.207550
     7  C    2.520934   1.326547   4.163708   4.709006   2.196098
     8  H    1.013094   1.933194   3.739656   4.773131   5.150873
     9  H    3.233282   2.113597   5.237843   5.753363   2.469380
                    6          7          8          9
     6  N    0.000000
     7  C    1.405949   0.000000
     8  H    4.014898   3.210080   0.000000
     9  H    2.175894   1.083234   3.892678   0.000000
 Stoichiometry    C2H2N4O
 Framework group  C1[X(C2H2N4O)]
 Deg. of freedom    21
 Full point group                 C1      NOp   1
 Largest Abelian subgroup         C1      NOp   1
 Largest concise Abelian subgroup C1      NOp   1
                         Standard orientation:                         
 ---------------------------------------------------------------------
 Center     Atomic      Atomic             Coordinates (Angstroms)
 Number     Number       Type             X           Y           Z
 ---------------------------------------------------------------------
      1          7           0       -0.458711    2.341760   -0.155368
      2          6           0       -1.003220    1.289205    0.020023
      3          7           0        2.539155    0.205765    0.025881
      4          7           0        2.998809   -0.779719    0.003645
      5          8           0       -1.420005   -2.067463   -0.005102
      6          7           0       -0.815541   -1.024039   -0.068884
      7          6           0       -1.623345    0.117771    0.074001
      8          1           0       -0.034684    2.855611    0.607859
      9          1           0       -2.691876    0.035873    0.231893
 ---------------------------------------------------------------------
 Rotational constants (GHZ):           2.5511327           1.6170050           0.9931488
 Standard basis: def2TZVP (5D, 7F)
 There are   264 symmetry adapted cartesian basis functions of A   symmetry.
 There are   229 symmetry adapted basis functions of A   symmetry.
   229 basis functions,   373 primitive gaussians,   264 cartesian basis functions
    25 alpha electrons       25 beta electrons
       nuclear repulsion energy       229.6234142288 Hartrees.
 NAtoms=    9 NActive=    9 NUniq=    9 SFac= 1.00D+00 NAtFMM=   60 NAOKFM=F Big=F
 Integral buffers will be    131072 words long.
 Raffenetti 2 integral format.
 Two-electron integral symmetry is turned on.
 Nuclear repulsion after empirical dispersion term =      229.6211747212 Hartrees.
 One-electron integrals computed using PRISM.
   1 Symmetry operations used in ECPInt.
 ECPInt:  NShTT=    3655 NPrTT=   11788 LenC2=    3475 LenP2D=    8590.
 LDataN:  DoStor=T MaxTD1= 6 Len=  172
 NBasis=   229 RedAO= T EigKep=  7.16D-05  NBF=   229
 NBsUse=   229 1.00D-06 EigRej= -1.00D+00 NBFU=   229
 Initial guess from the checkpoint file:  "/scratch/23935644/Gau-7684.chk"
 B after Tr=    -0.000000    0.000000   -0.000000
         Rot=    1.000000    0.000047   -0.000028   -0.000540 Ang=   0.06 deg.
 Initial guess <Sx>= 0.0000 <Sy>= 0.0000 <Sz>= 0.0000 <S**2>= 0.0000 S= 0.0000
 ExpMin= 9.52D-02 ExpMax= 2.70D+04 ExpMxC= 9.22D+02 IAcc=2 IRadAn=         4 AccDes= 0.00D+00
 Harris functional with IExCor= 4639 and IRadAn=       4 diagonalized for initial guess.
 HarFok:  IExCor= 4639 AccDes= 0.00D+00 IRadAn=         4 IDoV= 1 UseB2=F ITyADJ=14
 ICtDFT=  3500011 ScaDFX=  1.000000  1.000000  1.000000  1.000000
 FoFCou: FMM=F IPFlag=           0 FMFlag=      100000 FMFlg1=           0
         NFxFlg=           0 DoJE=T BraDBF=F KetDBF=T FulRan=T
         wScrn=  0.000000 ICntrl=       500 IOpCl=  0 I1Cent=   200000004 NGrid=           0
         NMat0=    1 NMatS0=      1 NMatT0=    0 NMatD0=    1 NMtDS0=    0 NMtDT0=    0
 Petite list used in FoFCou.
 Requested convergence on RMS density matrix=1.00D-08 within 128 cycles.
 Requested convergence on MAX density matrix=1.00D-06.
 Requested convergence on             energy=1.00D-06.
 No special actions if energy rises.
 Integral accuracy reduced to 1.0D-05 until final iterations.
 Initial convergence to 1.0D-05 achieved.  Increase integral accuracy.
 SCF Done:  E(UwB97XD) =  -371.550899661     A.U. after   14 cycles
            NFock= 14  Conv=0.60D-08     -V/T= 2.0039
 <Sx>= 0.0000 <Sy>= 0.0000 <Sz>= 0.0000 <S**2>=-0.0000 S=-0.0000
 <L.S>=  0.00000000000    
 Annihilation of the first spin contaminant:
 S**2 before annihilation    -0.0000,   after     0.0000
   1 Symmetry operations used in ECPInt.
 ECPInt:  NShTT=    3655 NPrTT=   11788 LenC2=    3475 LenP2D=    8590.
 LDataN:  DoStor=T MaxTD1= 7 Len=  274
 Calling FoFJK, ICntrl=      2127 FMM=F ISym2X=0 I1Cent= 0 IOpClX= 1 NMat=1 NMatS=1 NMatT=0.
 ***** Axes restored to original set *****
 -------------------------------------------------------------------
 Center     Atomic                   Forces (Hartrees/Bohr)
 Number     Number              X              Y              Z
 -------------------------------------------------------------------
      1        7           0.000061624    0.000332858    0.000340236
      2        6          -0.000509565   -0.000132083   -0.001028118
      3        7          -0.000002617   -0.000030852    0.000365206
      4        7           0.000039392    0.000031709   -0.000213506
      5        8          -0.000027652   -0.000092289   -0.000041303
      6        7          -0.000172787   -0.000045097    0.000017757
      7        6           0.000419871   -0.000045202    0.000295760
      8        1           0.000164274   -0.000035937    0.000044674
      9        1           0.000027460    0.000016892    0.000219294
 -------------------------------------------------------------------
 Cartesian Forces:  Max     0.001028118 RMS     0.000281225

 GradGradGradGradGradGradGradGradGradGradGradGradGradGradGradGradGradGrad
 Berny optimization.
 Using GEDIIS/GDIIS optimizer.
 FormGI is forming the generalized inverse of G from B-inverse, IUseBI=4.
 Internal  Forces:  Max     0.000582490 RMS     0.000156273
 Search for a local minimum.
 Step number   2 out of a maximum of   54
 All quantities printed in internal units (Hartrees-Bohrs-Radians)
 Mixed Optimization -- En-DIIS/RFO-DIIS
 Swapping is turned off.
 Update second derivatives using D2CorX and points    1    2
 DE= -1.38D-05 DEPred=-1.41D-05 R= 9.76D-01
 TightC=F SS=  1.41D+00  RLast= 7.30D-02 DXNew= 5.0454D-01 2.1886D-01
 Trust test= 9.76D-01 RLast= 7.30D-02 DXMaxT set to 3.00D-01
 ITU=  1  0
     Eigenvalues ---    0.00102   0.00585   0.00998   0.01065   0.01356
     Eigenvalues ---    0.01663   0.02846   0.04837   0.06038   0.11342
     Eigenvalues ---    0.15989   0.21135   0.24078   0.24874   0.35601
     Eigenvalues ---    0.42908   0.45339   0.57483   1.01105   1.02557
     Eigenvalues ---    1.89791
 En-DIIS/RFO-DIIS/Sim-DIIS IScMMF=       -3 using points:     2    1
 RFO step:  Lambda=-4.89552818D-05.
 DidBck=F Rises=F RFO-DIIS coefs:    3.00000   -2.00000
 Iteration  1 RMS(Cart)=  0.01277948 RMS(Int)=  0.00085502
 Iteration  2 RMS(Cart)=  0.00064064 RMS(Int)=  0.00040768
 Iteration  3 RMS(Cart)=  0.00000101 RMS(Int)=  0.00040768
 Iteration  4 RMS(Cart)=  0.00000000 RMS(Int)=  0.00040768
 Variable       Old X    -DE/DX   Delta X   Delta X   Delta X     New X
                                 (Linear)    (Quad)   (Total)
    R1        2.26383   0.00031   0.00083   0.00020   0.00131   2.26513
    R2        6.96449  -0.00000   0.01855  -0.00371   0.01483   6.97932
    R3        1.91447   0.00008   0.00665  -0.00057   0.00608   1.92055
    R4        7.00023   0.00003  -0.00690   0.00535  -0.00175   6.99848
    R5        2.50681  -0.00001   0.00089  -0.00010   0.00097   2.50778
    R6        2.05534  -0.00001  -0.00001  -0.00000  -0.00001   2.05532
    R7        6.75439   0.00005   0.00077   0.00328   0.00401   6.75840
    R8        2.28194   0.00009   0.00021   0.00006   0.00027   2.28221
    R9        2.65686  -0.00003  -0.00005  -0.00005   0.00010   2.65696
   R10        2.04702   0.00000  -0.00021   0.00003  -0.00017   2.04684
    A1        2.12420   0.00021  -0.00187   0.00050  -0.00126   2.12295
    A2        1.48715  -0.00008  -0.00058  -0.00175  -0.00228   1.48487
    A3        1.76062  -0.00013  -0.00045  -0.00098  -0.00159   1.75903
    A4        2.62177   0.00009  -0.00316  -0.00041  -0.00542   2.61634
    A5        0.96994   0.00010  -0.00076   0.00113   0.00040   0.97034
    A6        2.30381   0.00003   0.00239   0.00029   0.00286   2.30667
    A7        0.64859   0.00003   0.00062  -0.00028   0.00040   0.64899
    A8        1.65525  -0.00001   0.00135   0.00034   0.00348   1.65873
    A9        2.44297   0.00000  -0.00024   0.00013  -0.00022   2.44275
   A10        1.83086  -0.00013  -0.00354  -0.00009  -0.00386   1.82700
   A11        1.99190   0.00013  -0.00088   0.00057  -0.00039   1.99151
   A12        2.03134   0.00020   0.00071   0.00084   0.00157   2.03292
   A13        2.13391  -0.00013  -0.00033  -0.00058  -0.00098   2.13294
   A14        2.11785  -0.00008  -0.00016  -0.00029  -0.00052   2.11733
   A15        3.15303  -0.00017   0.01069  -0.00492   0.00569   3.15872
   A16        3.24945  -0.00058   0.02037  -0.03404  -0.01353   3.23592
    D1       -1.56424   0.00023  -0.01992   0.01007  -0.00987  -1.57412
    D2        1.62114  -0.00001   0.00646  -0.00996  -0.00342   1.61772
    D3        2.41688  -0.00010   0.10669   0.01204   0.11833   2.53521
    D4        2.28773  -0.00012   0.02238  -0.02346  -0.00081   2.28692
    D5        0.07069   0.00034   0.05063   0.04202   0.09288   0.16357
    D6        0.08357   0.00010   0.00970   0.00176   0.01143   0.09499
    D7       -0.14359  -0.00020  -0.01692  -0.00312  -0.02005  -0.16364
    D8        2.98481  -0.00013  -0.00199  -0.00507  -0.00710   2.97772
    D9       -3.06909   0.00011   0.01045   0.00670   0.01713  -3.05196
   D10       -0.15397   0.00008  -0.02077   0.01069  -0.01007  -0.16405
   D11       -2.99524  -0.00007   0.02196  -0.00569   0.01629  -2.97895
   D12       -0.08012  -0.00010  -0.00926  -0.00170  -0.01092  -0.09104
   D13        0.13675   0.00011   0.05254   0.02434   0.07691   0.21366
   D14        3.05187   0.00008   0.02131   0.02833   0.04970   3.10157
   D15        0.15128   0.00021   0.01755   0.00335   0.02087   0.17216
   D16       -2.97725   0.00014   0.00278   0.00529   0.00805  -2.96920
   D17        3.13396   0.00018  -0.00417   0.00611   0.00197   3.13593
   D18        0.00543   0.00011  -0.01894   0.00804  -0.01086  -0.00542
         Item               Value     Threshold  Converged?
 Maximum Force            0.000582     0.000450     NO 
 RMS     Force            0.000156     0.000300     YES
 Maximum Displacement     0.058917     0.001800     NO 
 RMS     Displacement     0.012782     0.001200     NO 
 Predicted change in Energy=-2.391542D-05
 GradGradGradGradGradGradGradGradGradGradGradGradGradGradGradGradGradGrad

                          Input orientation:                          
 ---------------------------------------------------------------------
 Center     Atomic      Atomic             Coordinates (Angstroms)
 Number     Number       Type             X           Y           Z
 ---------------------------------------------------------------------
      1          7           0       -0.470791    2.377776   -0.122115
      2          6           0       -1.018654    1.323455    0.036106
      3          7           0        2.513265    0.209917    0.068261
      4          7           0        2.969708   -0.773026   -0.023525
      5          8           0       -1.466440   -2.030205   -0.011156
      6          7           0       -0.852119   -0.992207   -0.071934
      7          6           0       -1.647573    0.156046    0.088101
      8          1           0       -0.047346    2.880150    0.653258
      9          1           0       -2.716730    0.082774    0.245363
 ---------------------------------------------------------------------
                    Distance matrix (angstroms):
                    1          2          3          4          5
     1  N    0.000000
     2  C    1.198657   0.000000
     3  N    3.693298   3.703438   0.000000
     4  N    4.666295   4.506198   1.087631   0.000000
     5  O    4.520390   3.383753   4.567550   4.610864   0.000000
     6  N    3.391860   2.324156   3.576390   3.828413   1.207694
     7  C    2.522913   1.327060   4.161235   4.711149   2.195986
     8  H    1.016312   1.935876   3.745544   4.786058   5.154306
     9  H    3.232076   2.113420   5.234538   5.756759   2.468544
                    6          7          8          9
     6  N    0.000000
     7  C    1.406003   0.000000
     8  H    4.021034   3.209498   0.000000
     9  H    2.175555   1.083142   3.888098   0.000000
 Stoichiometry    C2H2N4O
 Framework group  C1[X(C2H2N4O)]
 Deg. of freedom    21
 Full point group                 C1      NOp   1
 Largest Abelian subgroup         C1      NOp   1
 Largest concise Abelian subgroup C1      NOp   1
                         Standard orientation:                         
 ---------------------------------------------------------------------
 Center     Atomic      Atomic             Coordinates (Angstroms)
 Number     Number       Type             X           Y           Z
 ---------------------------------------------------------------------
      1          7           0       -0.461163    2.345602   -0.158629
      2          6           0       -1.001078    1.288949    0.010942
      3          7           0        2.539207    0.202828    0.057577
      4          7           0        3.003196   -0.777559   -0.023027
      5          8           0       -1.423244   -2.068350    0.000599
      6          7           0       -0.816814   -1.026430   -0.071313
      7          6           0       -1.621112    0.117421    0.075499
      8          1           0       -0.042096    2.859757    0.611382
      9          1           0       -2.689788    0.037737    0.232917
 ---------------------------------------------------------------------
 Rotational constants (GHZ):           2.5460266           1.6144336           0.9916647
 Standard basis: def2TZVP (5D, 7F)
 There are   264 symmetry adapted cartesian basis functions of A   symmetry.
 There are   229 symmetry adapted basis functions of A   symmetry.
   229 basis functions,   373 primitive gaussians,   264 cartesian basis functions
    25 alpha electrons       25 beta electrons
       nuclear repulsion energy       229.5009660697 Hartrees.
 NAtoms=    9 NActive=    9 NUniq=    9 SFac= 1.00D+00 NAtFMM=   60 NAOKFM=F Big=F
 Integral buffers will be    131072 words long.
 Raffenetti 2 integral format.
 Two-electron integral symmetry is turned on.
 Nuclear repulsion after empirical dispersion term =      229.4987304933 Hartrees.
 One-electron integrals computed using PRISM.
   1 Symmetry operations used in ECPInt.
 ECPInt:  NShTT=    3655 NPrTT=   11788 LenC2=    3474 LenP2D=    8589.
 LDataN:  DoStor=T MaxTD1= 6 Len=  172
 NBasis=   229 RedAO= T EigKep=  7.14D-05  NBF=   229
 NBsUse=   229 1.00D-06 EigRej= -1.00D+00 NBFU=   229
 Initial guess from the checkpoint file:  "/scratch/23935644/Gau-7684.chk"
 B after Tr=     0.000000    0.000000    0.000000
         Rot=    1.000000   -0.000012   -0.000002   -0.000016 Ang=  -0.00 deg.
 Initial guess <Sx>= 0.0000 <Sy>= 0.0000 <Sz>= 0.0000 <S**2>=-0.0000 S=-0.0000
 ExpMin= 9.52D-02 ExpMax= 2.70D+04 ExpMxC= 9.22D+02 IAcc=2 IRadAn=         4 AccDes= 0.00D+00
 Harris functional with IExCor= 4639 and IRadAn=       4 diagonalized for initial guess.
 HarFok:  IExCor= 4639 AccDes= 0.00D+00 IRadAn=         4 IDoV= 1 UseB2=F ITyADJ=14
 ICtDFT=  3500011 ScaDFX=  1.000000  1.000000  1.000000  1.000000
 FoFCou: FMM=F IPFlag=           0 FMFlag=      100000 FMFlg1=           0
         NFxFlg=           0 DoJE=T BraDBF=F KetDBF=T FulRan=T
         wScrn=  0.000000 ICntrl=       500 IOpCl=  0 I1Cent=   200000004 NGrid=           0
         NMat0=    1 NMatS0=      1 NMatT0=    0 NMatD0=    1 NMtDS0=    0 NMtDT0=    0
 Petite list used in FoFCou.
 Requested convergence on RMS density matrix=1.00D-08 within 128 cycles.
 Requested convergence on MAX density matrix=1.00D-06.
 Requested convergence on             energy=1.00D-06.
 No special actions if energy rises.
 Integral accuracy reduced to 1.0D-05 until final iterations.
 Initial convergence to 1.0D-05 achieved.  Increase integral accuracy.
 SCF Done:  E(UwB97XD) =  -371.550924695     A.U. after   14 cycles
            NFock= 14  Conv=0.59D-08     -V/T= 2.0039
 <Sx>= 0.0000 <Sy>= 0.0000 <Sz>= 0.0000 <S**2>=-0.0000 S=-0.0000
 <L.S>=  0.00000000000    
 Annihilation of the first spin contaminant:
 S**2 before annihilation    -0.0000,   after     0.0000
   1 Symmetry operations used in ECPInt.
 ECPInt:  NShTT=    3655 NPrTT=   11788 LenC2=    3474 LenP2D=    8589.
 LDataN:  DoStor=T MaxTD1= 7 Len=  274
 Calling FoFJK, ICntrl=      2127 FMM=F ISym2X=0 I1Cent= 0 IOpClX= 1 NMat=1 NMatS=1 NMatT=0.
 ***** Axes restored to original set *****
 -------------------------------------------------------------------
 Center     Atomic                   Forces (Hartrees/Bohr)
 Number     Number              X              Y              Z
 -------------------------------------------------------------------
      1        7           0.000493450    0.000451350    0.001736873
      2        6          -0.000373637    0.000755763    0.000372649
      3        7          -0.000024855   -0.000006594    0.000342250
      4        7           0.000041163    0.000015540   -0.000193092
      5        8           0.000090525    0.000060168   -0.000124009
      6        7          -0.000289306   -0.000088284    0.000295081
      7        6           0.000969525    0.000343334   -0.000809915
      8        1          -0.000866233   -0.001590015   -0.001983848
      9        1          -0.000040633    0.000058739    0.000364010
 -------------------------------------------------------------------
 Cartesian Forces:  Max     0.001983848 RMS     0.000713415

 GradGradGradGradGradGradGradGradGradGradGradGradGradGradGradGradGradGrad
 Berny optimization.
 Using GEDIIS/GDIIS optimizer.
 FormGI is forming the generalized inverse of G from B-inverse, IUseBI=4.
 Internal  Forces:  Max     0.002661489 RMS     0.000468775
 Search for a local minimum.
 Step number   3 out of a maximum of   54
 All quantities printed in internal units (Hartrees-Bohrs-Radians)
 Mixed Optimization -- En-DIIS/RFO-DIIS
 Swapping is turned off.
 Update second derivatives using D2CorX and points    1    2    3
 DE= -2.50D-05 DEPred=-2.39D-05 R= 1.05D+00
 TightC=F SS=  1.41D+00  RLast= 1.84D-01 DXNew= 5.0454D-01 5.5057D-01
 Trust test= 1.05D+00 RLast= 1.84D-01 DXMaxT set to 5.05D-01
 ITU=  1  1  0
     Eigenvalues ---    0.00051   0.00632   0.00998   0.01103   0.01448
     Eigenvalues ---    0.01736   0.03232   0.04969   0.05962   0.12015
     Eigenvalues ---    0.15994   0.20962   0.23837   0.24662   0.35607
     Eigenvalues ---    0.42903   0.56529   0.74274   1.01151   1.08672
     Eigenvalues ---    1.89793
 En-DIIS/RFO-DIIS/Sim-DIIS IScMMF=       -3 using points:     3    2    1
 RFO step:  Lambda=-3.61464105D-05.
 DidBck=F Rises=F RFO-DIIS coefs:    1.50645    0.33774   -0.84419
 Iteration  1 RMS(Cart)=  0.01077390 RMS(Int)=  0.00085798
 Iteration  2 RMS(Cart)=  0.00047852 RMS(Int)=  0.00064151
 Iteration  3 RMS(Cart)=  0.00000053 RMS(Int)=  0.00064151
 Variable       Old X    -DE/DX   Delta X   Delta X   Delta X     New X
                                 (Linear)    (Quad)   (Total)
    R1        2.26513  -0.00106   0.00101  -0.00083   0.00062   2.26575
    R2        6.97932  -0.00014   0.01534  -0.01163   0.00370   6.98302
    R3        1.92055  -0.00266   0.00589  -0.00507   0.00082   1.92137
    R4        6.99848   0.00018  -0.00379   0.00405  -0.00004   6.99845
    R5        2.50778  -0.00061   0.00087  -0.00089   0.00024   2.50802
    R6        2.05532   0.00002  -0.00001   0.00001  -0.00000   2.05532
    R7        6.75840  -0.00008   0.00236  -0.00070   0.00160   6.76000
    R8        2.28221  -0.00010   0.00022  -0.00010   0.00012   2.28233
    R9        2.65696  -0.00011   0.00003  -0.00010   0.00023   2.65719
   R10        2.04684   0.00009  -0.00018   0.00020   0.00003   2.04687
    A1        2.12295  -0.00033  -0.00142  -0.00070  -0.00186   2.12108
    A2        1.48487  -0.00035  -0.00140  -0.00257  -0.00389   1.48099
    A3        1.75903  -0.00017  -0.00100  -0.00098  -0.00220   1.75684
    A4        2.61634  -0.00013  -0.00408  -0.00048  -0.00744   2.60891
    A5        0.97034  -0.00019  -0.00012  -0.00006  -0.00007   0.97027
    A6        2.30667   0.00006   0.00246   0.00006   0.00296   2.30963
    A7        0.64899  -0.00002   0.00046  -0.00011   0.00046   0.64945
    A8        1.65873   0.00008   0.00233   0.00033   0.00539   1.66413
    A9        2.44275   0.00001  -0.00021   0.00011  -0.00023   2.44252
   A10        1.82700  -0.00016  -0.00345   0.00090  -0.00288   1.82411
   A11        1.99151   0.00015  -0.00057   0.00062  -0.00005   1.99146
   A12        2.03292   0.00036   0.00110   0.00105   0.00220   2.03511
   A13        2.13294  -0.00026  -0.00063  -0.00083  -0.00156   2.13138
   A14        2.11733  -0.00010  -0.00033  -0.00022  -0.00064   2.11669
   A15        3.15872  -0.00024   0.00739  -0.00784  -0.00057   3.15814
   A16        3.23592   0.00036   0.00174   0.00249   0.00453   3.24045
    D1       -1.57412   0.00014  -0.01341   0.00489  -0.00853  -1.58265
    D2        1.61772   0.00008   0.00100  -0.00459  -0.00346   1.61426
    D3        2.53521   0.00014   0.10496   0.00558   0.10970   2.64491
    D4        2.28692  -0.00004   0.00904  -0.00166   0.00793   2.29485
    D5        0.16357   0.00001   0.06841   0.00234   0.07123   0.23480
    D6        0.09499  -0.00001   0.00988  -0.00269   0.00713   0.10213
    D7       -0.16364  -0.00001  -0.01729   0.00461  -0.01270  -0.17633
    D8        2.97772  -0.00023  -0.00444  -0.00546  -0.00997   2.96775
    D9       -3.05196  -0.00008   0.01309  -0.00674   0.00630  -3.04566
   D10       -0.16405  -0.00008  -0.01387   0.00264  -0.01125  -0.17530
   D11       -2.97895   0.00003   0.01752  -0.00680   0.01075  -2.96819
   D12       -0.09104   0.00003  -0.00944   0.00257  -0.00680  -0.09784
   D13        0.21366   0.00004   0.06113  -0.00307   0.05812   0.27177
   D14        3.10157   0.00004   0.03416   0.00630   0.04056  -3.14106
   D15        0.17216   0.00001   0.01798  -0.00466   0.01326   0.18542
   D16       -2.96920   0.00024   0.00525   0.00531   0.01056  -2.95864
   D17        3.13593   0.00000  -0.00076   0.00181   0.00106   3.13699
   D18       -0.00542   0.00022  -0.01349   0.01178  -0.00164  -0.00707
         Item               Value     Threshold  Converged?
 Maximum Force            0.002661     0.000450     NO 
 RMS     Force            0.000469     0.000300     NO 
 Maximum Displacement     0.054108     0.001800     NO 
 RMS     Displacement     0.010842     0.001200     NO 
 Predicted change in Energy=-1.579836D-05
 GradGradGradGradGradGradGradGradGradGradGradGradGradGradGradGradGradGrad

                          Input orientation:                          
 ---------------------------------------------------------------------
 Center     Atomic      Atomic             Coordinates (Angstroms)
 Number     Number       Type             X           Y           Z
 ---------------------------------------------------------------------
      1          7           0       -0.470304    2.376900   -0.127195
      2          6           0       -1.018665    1.323460    0.037507
      3          7           0        2.511659    0.206049    0.096894
      4          7           0        2.973985   -0.768290   -0.044016
      5          8           0       -1.469904   -2.030977   -0.013703
      6          7           0       -0.853925   -0.993918   -0.074987
      7          6           0       -1.646759    0.155510    0.090610
      8          1           0       -0.047178    2.882778    0.646641
      9          1           0       -2.715588    0.083168    0.250610
 ---------------------------------------------------------------------
                    Distance matrix (angstroms):
                    1          2          3          4          5
     1  N    0.000000
     2  C    1.198985   0.000000
     3  N    3.695255   3.703420   0.000000
     4  N    4.665004   4.508138   1.087629   0.000000
     5  O    4.521224   3.385039   4.568300   4.619897   0.000000
     6  N    3.392979   2.325947   3.577236   3.834678   1.207758
     7  C    2.523105   1.327188   4.158729   4.714107   2.196107
     8  H    1.016745   1.935537   3.743627   4.789022   5.158022
     9  H    3.231910   2.112648   5.230949   5.760470   2.468036
                    6          7          8          9
     6  N    0.000000
     7  C    1.406127   0.000000
     8  H    4.024967   3.210268   0.000000
     9  H    2.175297   1.083157   3.887810   0.000000
 Stoichiometry    C2H2N4O
 Framework group  C1[X(C2H2N4O)]
 Deg. of freedom    21
 Full point group                 C1      NOp   1
 Largest Abelian subgroup         C1      NOp   1
 Largest concise Abelian subgroup C1      NOp   1
                         Standard orientation:                         
 ---------------------------------------------------------------------
 Center     Atomic      Atomic             Coordinates (Angstroms)
 Number     Number       Type             X           Y           Z
 ---------------------------------------------------------------------
      1          7           0       -0.455910    2.345739   -0.166381
      2          6           0       -0.998307    1.291318    0.011286
      3          7           0        2.538287    0.194750    0.084487
      4          7           0        3.006139   -0.778616   -0.044397
      5          8           0       -1.430526   -2.065999    0.001418
      6          7           0       -0.820428   -1.026299   -0.072636
      7          6           0       -1.619776    0.120570    0.078771
      8          1           0       -0.035722    2.863506    0.601167
      9          1           0       -2.688191    0.044150    0.239637
 ---------------------------------------------------------------------
 Rotational constants (GHZ):           2.5455098           1.6117977           0.9910147
 Standard basis: def2TZVP (5D, 7F)
 There are   264 symmetry adapted cartesian basis functions of A   symmetry.
 There are   229 symmetry adapted basis functions of A   symmetry.
   229 basis functions,   373 primitive gaussians,   264 cartesian basis functions
    25 alpha electrons       25 beta electrons
       nuclear repulsion energy       229.4444091231 Hartrees.
 NAtoms=    9 NActive=    9 NUniq=    9 SFac= 1.00D+00 NAtFMM=   60 NAOKFM=F Big=F
 Integral buffers will be    131072 words long.
 Raffenetti 2 integral format.
 Two-electron integral symmetry is turned on.
 Nuclear repulsion after empirical dispersion term =      229.4421758097 Hartrees.
 One-electron integrals computed using PRISM.
   1 Symmetry operations used in ECPInt.
 ECPInt:  NShTT=    3655 NPrTT=   11788 LenC2=    3472 LenP2D=    8587.
 LDataN:  DoStor=T MaxTD1= 6 Len=  172
 NBasis=   229 RedAO= T EigKep=  7.15D-05  NBF=   229
 NBsUse=   229 1.00D-06 EigRej= -1.00D+00 NBFU=   229
 Initial guess from the checkpoint file:  "/scratch/23935644/Gau-7684.chk"
 B after Tr=    -0.000000   -0.000000    0.000000
         Rot=    1.000000    0.000014    0.000002    0.000975 Ang=   0.11 deg.
 Initial guess <Sx>= 0.0000 <Sy>= 0.0000 <Sz>= 0.0000 <S**2>=-0.0000 S=-0.0000
 ExpMin= 9.52D-02 ExpMax= 2.70D+04 ExpMxC= 9.22D+02 IAcc=2 IRadAn=         4 AccDes= 0.00D+00
 Harris functional with IExCor= 4639 and IRadAn=       4 diagonalized for initial guess.
 HarFok:  IExCor= 4639 AccDes= 0.00D+00 IRadAn=         4 IDoV= 1 UseB2=F ITyADJ=14
 ICtDFT=  3500011 ScaDFX=  1.000000  1.000000  1.000000  1.000000
 FoFCou: FMM=F IPFlag=           0 FMFlag=      100000 FMFlg1=           0
         NFxFlg=           0 DoJE=T BraDBF=F KetDBF=T FulRan=T
         wScrn=  0.000000 ICntrl=       500 IOpCl=  0 I1Cent=   200000004 NGrid=           0
         NMat0=    1 NMatS0=      1 NMatT0=    0 NMatD0=    1 NMtDS0=    0 NMtDT0=    0
 Petite list used in FoFCou.
 Requested convergence on RMS density matrix=1.00D-08 within 128 cycles.
 Requested convergence on MAX density matrix=1.00D-06.
 Requested convergence on             energy=1.00D-06.
 No special actions if energy rises.
 Integral accuracy reduced to 1.0D-05 until final iterations.
 Initial convergence to 1.0D-05 achieved.  Increase integral accuracy.
 SCF Done:  E(UwB97XD) =  -371.550947644     A.U. after   14 cycles
            NFock= 14  Conv=0.32D-08     -V/T= 2.0039
 <Sx>= 0.0000 <Sy>= 0.0000 <Sz>= 0.0000 <S**2>=-0.0000 S=-0.0000
 <L.S>=  0.00000000000    
 Annihilation of the first spin contaminant:
 S**2 before annihilation    -0.0000,   after     0.0000
   1 Symmetry operations used in ECPInt.
 ECPInt:  NShTT=    3655 NPrTT=   11788 LenC2=    3472 LenP2D=    8587.
 LDataN:  DoStor=T MaxTD1= 7 Len=  274
 Calling FoFJK, ICntrl=      2127 FMM=F ISym2X=0 I1Cent= 0 IOpClX= 1 NMat=1 NMatS=1 NMatT=0.
 ***** Axes restored to original set *****
 -------------------------------------------------------------------
 Center     Atomic                   Forces (Hartrees/Bohr)
 Number     Number              X              Y              Z
 -------------------------------------------------------------------
      1        7           0.000216883    0.000483487    0.002389825
      2        6          -0.000017866    0.000528806   -0.000257842
      3        7          -0.000029251   -0.000023579    0.000316703
      4        7           0.000024181    0.000042915   -0.000171024
      5        8           0.000132910    0.000261845   -0.000168403
      6        7          -0.000186050   -0.000085830    0.000464727
      7        6           0.000732434    0.000568493   -0.000714675
      8        1          -0.000819413   -0.001783790   -0.002245224
      9        1          -0.000053828    0.000007653    0.000385913
 -------------------------------------------------------------------
 Cartesian Forces:  Max     0.002389825 RMS     0.000799562

 GradGradGradGradGradGradGradGradGradGradGradGradGradGradGradGradGradGrad
 Berny optimization.
 Using GEDIIS/GDIIS optimizer.
 FormGI is forming the generalized inverse of G from B-inverse, IUseBI=4.
 Internal  Forces:  Max     0.002938159 RMS     0.000521922
 Search for a local minimum.
 Step number   4 out of a maximum of   54
 All quantities printed in internal units (Hartrees-Bohrs-Radians)
 Mixed Optimization -- En-DIIS/RFO-DIIS
 Swapping is turned off.
 Update second derivatives using D2CorX and points    1    2    3    4
 DE= -2.29D-05 DEPred=-1.58D-05 R= 1.45D+00
 TightC=F SS=  1.41D+00  RLast= 1.53D-01 DXNew= 8.4853D-01 4.5872D-01
 Trust test= 1.45D+00 RLast= 1.53D-01 DXMaxT set to 5.05D-01
 ITU=  1  1  1  0
     Eigenvalues ---    0.00021   0.00644   0.01095   0.01186   0.01519
     Eigenvalues ---    0.01742   0.03244   0.05008   0.06528   0.12880
     Eigenvalues ---    0.16028   0.22030   0.23986   0.24413   0.35610
     Eigenvalues ---    0.42925   0.56097   0.75231   1.01422   1.14829
     Eigenvalues ---    1.89797
 En-DIIS/RFO-DIIS/Sim-DIIS IScMMF=       -3 using points:     4    3    2    1
 RFO step:  Lambda=-7.02951867D-05.
 DidBck=F Rises=F RFO-DIIS coefs:    3.00000   -1.38879   -0.05779   -0.55342
 Iteration  1 RMS(Cart)=  0.02719307 RMS(Int)=  0.02518679
 Iteration  2 RMS(Cart)=  0.01666801 RMS(Int)=  0.00419691
 Iteration  3 RMS(Cart)=  0.00052373 RMS(Int)=  0.00414368
 Iteration  4 RMS(Cart)=  0.00000208 RMS(Int)=  0.00414368
 Iteration  5 RMS(Cart)=  0.00000001 RMS(Int)=  0.00414368
 Variable       Old X    -DE/DX   Delta X   Delta X   Delta X     New X
                                 (Linear)    (Quad)   (Total)
    R1        2.26575  -0.00132   0.00226  -0.00104   0.00404   2.26979
    R2        6.98302  -0.00013   0.02160   0.00308   0.02456   7.00758
    R3        1.92137  -0.00294   0.00719  -0.00500   0.00219   1.92356
    R4        6.99845   0.00013  -0.00305  -0.00386  -0.00862   6.98983
    R5        2.50802  -0.00083   0.00132  -0.00132   0.00171   2.50973
    R6        2.05532  -0.00001  -0.00001  -0.00001  -0.00003   2.05530
    R7        6.76000  -0.00011   0.00586  -0.00632  -0.00087   6.75912
    R8        2.28233  -0.00030   0.00046  -0.00034   0.00013   2.28246
    R9        2.65719  -0.00017   0.00051  -0.00037   0.00199   2.65918
   R10        2.04687   0.00011  -0.00011   0.00028   0.00017   2.04704
    A1        2.12108  -0.00009  -0.00501  -0.00013  -0.00230   2.11878
    A2        1.48099  -0.00043  -0.00933  -0.00660  -0.01518   1.46581
    A3        1.75684  -0.00001  -0.00549  -0.00054  -0.00715   1.74968
    A4        2.60891  -0.00015  -0.01907  -0.00332  -0.03877   2.57014
    A5        0.97027  -0.00029  -0.00010   0.00038   0.00112   0.97139
    A6        2.30963   0.00004   0.00834   0.00106   0.01206   2.32169
    A7        0.64945  -0.00010   0.00133   0.00033   0.00237   0.65182
    A8        1.66413   0.00015   0.01329   0.00259   0.03402   1.69815
    A9        2.44252   0.00002  -0.00065   0.00045  -0.00040   2.44212
   A10        1.82411  -0.00005  -0.00911   0.00031  -0.01052   1.81359
   A11        1.99146   0.00004  -0.00059   0.00000  -0.00070   1.99075
   A12        2.03511   0.00015   0.00555   0.00036   0.00656   2.04168
   A13        2.13138  -0.00011  -0.00381  -0.00023  -0.00449   2.12689
   A14        2.11669  -0.00004  -0.00164  -0.00010  -0.00211   2.11459
   A15        3.15814  -0.00003   0.00529   0.00254   0.00718   3.16533
   A16        3.24045  -0.00002   0.00643  -0.00227   0.00670   3.24715
    D1       -1.58265   0.00034  -0.02861   0.01244  -0.01595  -1.59860
    D2        1.61426   0.00011  -0.00722   0.00117  -0.00500   1.60926
    D3        2.64491  -0.00000   0.32125   0.04210   0.35513   3.00005
    D4        2.29485  -0.00002   0.02155  -0.00047   0.02617   2.32101
    D5        0.23480   0.00014   0.21323   0.03012   0.24734   0.48214
    D6        0.10213   0.00002   0.02393  -0.00132   0.02218   0.12430
    D7       -0.17633  -0.00003  -0.04233   0.00232  -0.03987  -0.21620
    D8        2.96775  -0.00024  -0.02482  -0.00805  -0.03334   2.93441
    D9       -3.04566  -0.00000   0.02597  -0.00132   0.02438  -3.02127
   D10       -0.17530   0.00004  -0.03442   0.00270  -0.03202  -0.20733
   D11       -2.96819  -0.00003   0.03754  -0.00274   0.03534  -2.93285
   D12       -0.09784   0.00001  -0.02284   0.00128  -0.02107  -0.11891
   D13        0.27177   0.00005   0.17778   0.02044   0.19807   0.46985
   D14       -3.14106   0.00009   0.11740   0.02446   0.14166  -2.99939
   D15        0.18542   0.00004   0.04414  -0.00234   0.04142   0.22684
   D16       -2.95864   0.00025   0.02681   0.00794   0.03494  -2.92370
   D17        3.13699   0.00007   0.00217   0.00054   0.00254   3.13953
   D18       -0.00707   0.00028  -0.01516   0.01083  -0.00394  -0.01101
         Item               Value     Threshold  Converged?
 Maximum Force            0.002938     0.000450     NO 
 RMS     Force            0.000522     0.000300     NO 
 Maximum Displacement     0.174262     0.001800     NO 
 RMS     Displacement     0.036792     0.001200     NO 
 Predicted change in Energy=-9.015094D-06
 GradGradGradGradGradGradGradGradGradGradGradGradGradGradGradGradGradGrad

                          Input orientation:                          
 ---------------------------------------------------------------------
 Center     Atomic      Atomic             Coordinates (Angstroms)
 Number     Number       Type             X           Y           Z
 ---------------------------------------------------------------------
      1          7           0       -0.470139    2.376606   -0.141095
      2          6           0       -1.014917    1.321169    0.037681
      3          7           0        2.501051    0.182494    0.189109
      4          7           0        2.996641   -0.737765   -0.111594
      5          8           0       -1.486970   -2.034814   -0.017676
      6          7           0       -0.862530   -1.003014   -0.083293
      7          6           0       -1.644318    0.153155    0.096252
      8          1           0       -0.043319    2.889945    0.627303
      9          1           0       -2.712179    0.086903    0.265673
 ---------------------------------------------------------------------
                    Distance matrix (angstroms):
                    1          2          3          4          5
     1  N    0.000000
     2  C    1.201121   0.000000
     3  N    3.708252   3.698856   0.000000
     4  N    4.660337   4.511550   1.087616   0.000000
     5  O    4.528776   3.389473   4.567661   4.668396   0.000000
     6  N    3.402814   2.332313   3.576774   3.868380   1.207825
     7  C    2.525622   1.328094   4.146512   4.730268   2.196577
     8  H    1.017904   1.937192   3.741139   4.790365   5.172367
     9  H    3.230317   2.110946   5.214668   5.780401   2.466396
                    6          7          8          9
     6  N    0.000000
     7  C    1.407180   0.000000
     8  H    4.041186   3.214845   0.000000
     9  H    2.175062   1.083246   3.887241   0.000000
 Stoichiometry    C2H2N4O
 Framework group  C1[X(C2H2N4O)]
 Deg. of freedom    21
[...]
                 (A) (A) (A) (A) (A) (A) (A) (A) (A) (A) (A) (A)
                 (A)
       Virtual   (A) (A) (A) (A) (A) (A) (A) (A) (A) (A) (A) (A)
                 (A) (A) (A) (A) (A) (A) (A) (A) (A) (A) (A) (A)
                 (A) (A) (A) (A) (A) (A) (A) (A) (A) (A) (A) (A)
                 (A) (A) (A) (A) (A) (A) (A) (A) (A) (A) (A) (A)
                 (A) (A) (A) (A) (A) (A) (A) (A) (A) (A) (A) (A)
                 (A) (A) (A) (A) (A) (A) (A) (A) (A) (A) (A) (A)
                 (A) (A) (A) (A) (A) (A) (A) (A) (A) (A) (A) (A)
                 (A) (A) (A) (A) (A) (A) (A) (A) (A) (A) (A) (A)
                 (A) (A) (A) (A) (A) (A) (A) (A) (A) (A) (A) (A)
                 (A) (A) (A) (A) (A) (A) (A) (A) (A) (A) (A) (A)
                 (A) (A) (A) (A) (A) (A) (A) (A) (A) (A) (A) (A)
                 (A) (A) (A) (A) (A) (A) (A) (A) (A) (A) (A) (A)
                 (A) (A) (A) (A) (A) (A) (A) (A) (A) (A) (A) (A)
                 (A) (A) (A) (A) (A) (A) (A) (A) (A) (A) (A) (A)
                 (A) (A) (A) (A) (A) (A) (A) (A) (A) (A) (A) (A)
                 (A) (A) (A) (A) (A) (A) (A) (A) (A) (A) (A) (A)
                 (A) (A) (A) (A) (A) (A) (A) (A) (A) (A) (A) (A)
 Beta  Orbitals:
       Occupied  (A) (A) (A) (A) (A) (A) (A) (A) (A) (A) (A) (A)
                 (A) (A) (A) (A) (A) (A) (A) (A) (A) (A) (A) (A)
                 (A)
       Virtual   (A) (A) (A) (A) (A) (A) (A) (A) (A) (A) (A) (A)
                 (A) (A) (A) (A) (A) (A) (A) (A) (A) (A) (A) (A)
                 (A) (A) (A) (A) (A) (A) (A) (A) (A) (A) (A) (A)
                 (A) (A) (A) (A) (A) (A) (A) (A) (A) (A) (A) (A)
                 (A) (A) (A) (A) (A) (A) (A) (A) (A) (A) (A) (A)
                 (A) (A) (A) (A) (A) (A) (A) (A) (A) (A) (A) (A)
                 (A) (A) (A) (A) (A) (A) (A) (A) (A) (A) (A) (A)
                 (A) (A) (A) (A) (A) (A) (A) (A) (A) (A) (A) (A)
                 (A) (A) (A) (A) (A) (A) (A) (A) (A) (A) (A) (A)
                 (A) (A) (A) (A) (A) (A) (A) (A) (A) (A) (A) (A)
                 (A) (A) (A) (A) (A) (A) (A) (A) (A) (A) (A) (A)
                 (A) (A) (A) (A) (A) (A) (A) (A) (A) (A) (A) (A)
                 (A) (A) (A) (A) (A) (A) (A) (A) (A) (A) (A) (A)
                 (A) (A) (A) (A) (A) (A) (A) (A) (A) (A) (A) (A)
                 (A) (A) (A) (A) (A) (A) (A) (A) (A) (A) (A) (A)
                 (A) (A) (A) (A) (A) (A) (A) (A) (A) (A) (A) (A)
                 (A) (A) (A) (A) (A) (A) (A) (A) (A) (A) (A) (A)
 The electronic state is 1-A.
 Alpha  occ. eigenvalues --  -19.28548 -14.55411 -14.55199 -14.54673 -14.49844
 Alpha  occ. eigenvalues --  -10.40531 -10.33473  -1.25233  -1.25118  -1.08857
 Alpha  occ. eigenvalues --   -0.93855  -0.77512  -0.70085  -0.66464  -0.63012
 Alpha  occ. eigenvalues --   -0.59638  -0.57652  -0.57614  -0.55280  -0.54220
 Alpha  occ. eigenvalues --   -0.51089  -0.49700  -0.48203  -0.35238  -0.30925
 Alpha virt. eigenvalues --   -0.01611   0.02533   0.03889   0.03944   0.09470
 Alpha virt. eigenvalues --    0.11782   0.15651   0.18679   0.22218   0.25722
 Alpha virt. eigenvalues --    0.28658   0.31173   0.31501   0.33203   0.35569
 Alpha virt. eigenvalues --    0.36478   0.37058   0.38756   0.40012   0.41131
 Alpha virt. eigenvalues --    0.43036   0.44490   0.46296   0.46947   0.48353
 Alpha virt. eigenvalues --    0.49571   0.49989   0.51975   0.53316   0.54995
 Alpha virt. eigenvalues --    0.56863   0.57469   0.59679   0.60083   0.62329
 Alpha virt. eigenvalues --    0.65824   0.67454   0.69122   0.72005   0.74342
 Alpha virt. eigenvalues --    0.81095   0.84448   0.86024   0.87173   0.90085
 Alpha virt. eigenvalues --    0.91262   0.95460   0.99629   1.06473   1.10234
 Alpha virt. eigenvalues --    1.14421   1.16290   1.17215   1.17588   1.20805
 Alpha virt. eigenvalues --    1.23143   1.29021   1.30995   1.33522   1.33983
 Alpha virt. eigenvalues --    1.37859   1.40429   1.43507   1.47139   1.48201
 Alpha virt. eigenvalues --    1.51073   1.54221   1.55748   1.58473   1.61157
 Alpha virt. eigenvalues --    1.61627   1.68812   1.72579   1.73963   1.75414
 Alpha virt. eigenvalues --    1.77414   1.83455   1.84770   1.90154   1.91075
 Alpha virt. eigenvalues --    1.96391   1.99662   2.01081   2.04138   2.04486
 Alpha virt. eigenvalues --    2.08697   2.12574   2.14583   2.14803   2.17238
 Alpha virt. eigenvalues --    2.17877   2.20773   2.27757   2.30970   2.32890
 Alpha virt. eigenvalues --    2.34047   2.35727   2.44569   2.51567   2.53085
 Alpha virt. eigenvalues --    2.64016   2.65413   2.66371   2.68378   2.70287
 Alpha virt. eigenvalues --    2.74324   2.78815   2.80006   2.83612   2.84992
 Alpha virt. eigenvalues --    2.85923   2.91583   2.98620   3.00709   3.01299
 Alpha virt. eigenvalues --    3.02016   3.06348   3.09879   3.13222   3.19433
 Alpha virt. eigenvalues --    3.21438   3.26891   3.33371   3.41155   3.45057
 Alpha virt. eigenvalues --    3.52042   3.53392   3.54107   3.61836   3.63004
 Alpha virt. eigenvalues --    3.64683   3.66480   3.66588   3.68706   3.70685
 Alpha virt. eigenvalues --    3.73355   3.80637   3.98982   4.00158   4.03602
 Alpha virt. eigenvalues --    4.13810   4.15626   4.15669   4.21632   4.22441
 Alpha virt. eigenvalues --    4.26946   4.32568   4.40944   4.42162   4.43046
 Alpha virt. eigenvalues --    4.50065   4.55518   4.56514   4.57773   4.58123
 Alpha virt. eigenvalues --    4.59371   4.60877   4.64485   4.73603   4.74623
 Alpha virt. eigenvalues --    4.76022   4.77330   4.80818   5.00488   5.00510
 Alpha virt. eigenvalues --    5.03466   5.05173   5.07083   5.07399   5.07820
 Alpha virt. eigenvalues --    5.08619   5.11507   5.21684   5.23069   5.26069
 Alpha virt. eigenvalues --    5.27743   5.38795   5.42215   5.48742   5.65136
 Alpha virt. eigenvalues --    5.69445   5.70403   5.74583   5.91863   6.07139
 Alpha virt. eigenvalues --    6.27242   6.34851   6.35846   6.36451   6.41600
 Alpha virt. eigenvalues --    6.42083   6.61577   6.66812   6.95641   7.11040
 Alpha virt. eigenvalues --    7.21160   7.47684  22.84164  23.42987  31.33590
 Alpha virt. eigenvalues --   32.15433  32.16465  32.19931  43.96660
  Beta  occ. eigenvalues --  -19.28548 -14.55411 -14.55199 -14.54673 -14.49844
  Beta  occ. eigenvalues --  -10.40531 -10.33473  -1.25233  -1.25118  -1.08857
  Beta  occ. eigenvalues --   -0.93855  -0.77512  -0.70085  -0.66464  -0.63012
  Beta  occ. eigenvalues --   -0.59638  -0.57652  -0.57614  -0.55280  -0.54220
  Beta  occ. eigenvalues --   -0.51089  -0.49700  -0.48203  -0.35238  -0.30925
  Beta virt. eigenvalues --   -0.01611   0.02533   0.03889   0.03944   0.09470
  Beta virt. eigenvalues --    0.11782   0.15651   0.18679   0.22218   0.25722
  Beta virt. eigenvalues --    0.28658   0.31173   0.31501   0.33203   0.35569
  Beta virt. eigenvalues --    0.36478   0.37058   0.38756   0.40012   0.41131
  Beta virt. eigenvalues --    0.43036   0.44490   0.46296   0.46947   0.48353
  Beta virt. eigenvalues --    0.49571   0.49989   0.51975   0.53316   0.54995
  Beta virt. eigenvalues --    0.56863   0.57469   0.59679   0.60083   0.62329
  Beta virt. eigenvalues --    0.65824   0.67454   0.69122   0.72005   0.74342
  Beta virt. eigenvalues --    0.81095   0.84448   0.86024   0.87173   0.90085
  Beta virt. eigenvalues --    0.91262   0.95460   0.99629   1.06473   1.10234
  Beta virt. eigenvalues --    1.14421   1.16290   1.17215   1.17588   1.20805
  Beta virt. eigenvalues --    1.23143   1.29021   1.30995   1.33522   1.33983
  Beta virt. eigenvalues --    1.37859   1.40429   1.43507   1.47139   1.48201
  Beta virt. eigenvalues --    1.51073   1.54221   1.55748   1.58473   1.61157
  Beta virt. eigenvalues --    1.61627   1.68812   1.72579   1.73963   1.75414
  Beta virt. eigenvalues --    1.77414   1.83455   1.84770   1.90154   1.91075
  Beta virt. eigenvalues --    1.96391   1.99662   2.01081   2.04138   2.04486
  Beta virt. eigenvalues --    2.08697   2.12574   2.14583   2.14803   2.17238
  Beta virt. eigenvalues --    2.17877   2.20773   2.27757   2.30970   2.32890
  Beta virt. eigenvalues --    2.34047   2.35727   2.44569   2.51567   2.53085
  Beta virt. eigenvalues --    2.64016   2.65413   2.66371   2.68378   2.70287
  Beta virt. eigenvalues --    2.74324   2.78815   2.80006   2.83612   2.84992
  Beta virt. eigenvalues --    2.85923   2.91583   2.98620   3.00709   3.01299
  Beta virt. eigenvalues --    3.02016   3.06348   3.09879   3.13222   3.19433
  Beta virt. eigenvalues --    3.21438   3.26891   3.33371   3.41155   3.45057
  Beta virt. eigenvalues --    3.52042   3.53392   3.54107   3.61836   3.63004
  Beta virt. eigenvalues --    3.64683   3.66480   3.66588   3.68706   3.70685
  Beta virt. eigenvalues --    3.73355   3.80637   3.98982   4.00158   4.03602
  Beta virt. eigenvalues --    4.13810   4.15626   4.15669   4.21632   4.22441
  Beta virt. eigenvalues --    4.26946   4.32568   4.40944   4.42162   4.43046
  Beta virt. eigenvalues --    4.50065   4.55518   4.56514   4.57773   4.58123
  Beta virt. eigenvalues --    4.59371   4.60877   4.64485   4.73603   4.74623
  Beta virt. eigenvalues --    4.76022   4.77330   4.80818   5.00488   5.00510
  Beta virt. eigenvalues --    5.03466   5.05173   5.07083   5.07399   5.07820
  Beta virt. eigenvalues --    5.08619   5.11507   5.21684   5.23069   5.26069
  Beta virt. eigenvalues --    5.27743   5.38795   5.42215   5.48742   5.65136
  Beta virt. eigenvalues --    5.69445   5.70403   5.74583   5.91863   6.07139
  Beta virt. eigenvalues --    6.27242   6.34851   6.35846   6.36451   6.41600
  Beta virt. eigenvalues --    6.42083   6.61577   6.66812   6.95641   7.11040
  Beta virt. eigenvalues --    7.21160   7.47684  22.84164  23.42987  31.33590
  Beta virt. eigenvalues --   32.15433  32.16465  32.19931  43.96660
          Condensed to atoms (all electrons):
               1          2          3          4          5          6
     1  N    6.254707   0.658721  -0.003659   0.001149  -0.000058  -0.005129
     2  C    0.658721   4.851786  -0.002240  -0.000583   0.010791  -0.038495
     3  N   -0.003659  -0.002240   6.299227   0.682559  -0.000011  -0.000120
     4  N    0.001149  -0.000583   0.682559   6.332606   0.000018   0.000069
     5  O   -0.000058   0.010791  -0.000011   0.000018   8.117975   0.230159
     6  N   -0.005129  -0.038495  -0.000120   0.000069   0.230159   6.471409
     7  C   -0.046635   0.512502   0.004657  -0.000863  -0.085916   0.303113
     8  H    0.365957  -0.054538   0.003886   0.000473   0.000019  -0.000180
     9  H   -0.003996  -0.036626  -0.000027   0.000021   0.013539  -0.020337
               7          8          9
     1  N   -0.046635   0.365957  -0.003996
     2  C    0.512502  -0.054538  -0.036626
     3  N    0.004657   0.003886  -0.000027
     4  N   -0.000863   0.000473   0.000021
     5  O   -0.085916   0.000019   0.013539
     6  N    0.303113  -0.000180  -0.020337
     7  C    5.015426  -0.005138   0.404602
     8  H   -0.005138   0.396394  -0.000208
     9  H    0.404602  -0.000208   0.485515
          Atomic-Atomic Spin Densities.
               1          2          3          4          5          6
     1  N    0.000000  -0.000000  -0.000000   0.000000   0.000000  -0.000000
     2  C   -0.000000   0.000000   0.000000   0.000000   0.000000  -0.000000
     3  N   -0.000000   0.000000   0.000000  -0.000000  -0.000000   0.000000
     4  N    0.000000   0.000000  -0.000000   0.000000   0.000000  -0.000000
     5  O    0.000000   0.000000  -0.000000   0.000000  -0.000000   0.000000
     6  N   -0.000000  -0.000000   0.000000  -0.000000   0.000000  -0.000000
     7  C   -0.000000  -0.000000   0.000000  -0.000000  -0.000000   0.000000
     8  H    0.000000  -0.000000  -0.000000   0.000000  -0.000000  -0.000000
     9  H   -0.000000  -0.000000   0.000000  -0.000000   0.000000  -0.000000
               7          8          9
     1  N   -0.000000   0.000000  -0.000000
     2  C   -0.000000  -0.000000  -0.000000
     3  N    0.000000  -0.000000   0.000000
     4  N   -0.000000   0.000000  -0.000000
     5  O   -0.000000  -0.000000   0.000000
     6  N    0.000000  -0.000000  -0.000000
     7  C    0.000000  -0.000000   0.000000
     8  H   -0.000000   0.000000  -0.000000
     9  H    0.000000  -0.000000   0.000000
 Mulliken charges and spin densities:
               1          2
     1  N   -0.221057   0.000000
     2  C    0.098681  -0.000000
     3  N    0.015729   0.000000
     4  N   -0.015449  -0.000000
     5  O   -0.286517  -0.000000
     6  N    0.059511  -0.000000
     7  C   -0.101749   0.000000
     8  H    0.293335   0.000000
     9  H    0.157516   0.000000
 Sum of Mulliken charges =  -0.00000   0.00000
 Mulliken charges and spin densities with hydrogens summed into heavy atoms:
               1          2
     1  N    0.072278   0.000000
     2  C    0.098681  -0.000000
     3  N    0.015729   0.000000
     4  N   -0.015449  -0.000000
     5  O   -0.286517  -0.000000
     6  N    0.059511  -0.000000
     7  C    0.055767   0.000000
 Electronic spatial extent (au):  <R**2>=           1059.6303
 Charge=             -0.0000 electrons
 Dipole moment (field-independent basis, Debye):
    X=              3.3684    Y=              2.1256    Z=              1.5309  Tot=              4.2671
 Quadrupole moment (field-independent basis, Debye-Ang):
   XX=            -40.0138   YY=            -42.7469   ZZ=            -38.1148
   XY=             -1.6128   XZ=             -2.4726   YZ=              0.5343
 Traceless Quadrupole moment (field-independent basis, Debye-Ang):
   XX=              0.2780   YY=             -2.4551   ZZ=              2.1771
   XY=             -1.6128   XZ=             -2.4726   YZ=              0.5343
 Octapole moment (field-independent basis, Debye-Ang**2):
  XXX=             22.1868  YYY=             -8.4770  ZZZ=              3.4309  XYY=             10.0622
  XXY=             15.2083  XXZ=              1.3472  XZZ=              0.3975  YZZ=             -1.4766
  YYZ=              2.1655  XYZ=             -0.4417
 Hexadecapole moment (field-independent basis, Debye-Ang**3):
 XXXX=           -861.7886 YYYY=           -442.3383 ZZZZ=            -61.6854 XXXY=             -6.5102
 XXXZ=             -2.6922 YYYX=             20.1010 YYYZ=              4.6652 ZZZX=             -5.6062
 ZZZY=              0.9586 XXYY=           -222.7388 XXZZ=           -148.2406 YYZZ=            -79.5945
 XXYZ=             -1.9532 YYXZ=             -2.6221 ZZXY=             -0.4014
 N-N= 2.290499908729D+02 E-N=-1.327775764545D+03  KE= 3.701196292309D+02
                          Isotropic Fermi Contact Couplings
        Atom                 a.u.       MegaHertz       Gauss      10(-4) cm-1
     1  N(14)             -0.00000      -0.00000      -0.00000      -0.00000
     2  C(13)              0.00000       0.00000       0.00000       0.00000
     3  N(14)             -0.00000      -0.00000      -0.00000      -0.00000
     4  N(14)              0.00000       0.00000       0.00000       0.00000
     5  O(17)             -0.00000       0.00000       0.00000       0.00000
     6  N(14)             -0.00000      -0.00000      -0.00000      -0.00000
     7  C(13)              0.00000       0.00000       0.00000       0.00000
     8  H(1)               0.00000       0.00000       0.00000       0.00000
     9  H(1)              -0.00000      -0.00000      -0.00000      -0.00000
 --------------------------------------------------------
       Center         ----  Spin Dipole Couplings  ----
                      3XX-RR        3YY-RR        3ZZ-RR
 --------------------------------------------------------
     1   Atom        0.000000      0.000000     -0.000000
     2   Atom       -0.000000     -0.000000      0.000000
     3   Atom        0.000000     -0.000000      0.000000
     4   Atom       -0.000000      0.000000     -0.000000
     5   Atom        0.000000     -0.000000     -0.000000
     6   Atom       -0.000000     -0.000000      0.000000
     7   Atom       -0.000000     -0.000000      0.000000
     8   Atom       -0.000000      0.000000     -0.000000
     9   Atom       -0.000000     -0.000000      0.000000
 --------------------------------------------------------
                        XY            XZ            YZ
 --------------------------------------------------------
     1   Atom        0.000000     -0.000000     -0.000000
     2   Atom       -0.000000      0.000000      0.000000
     3   Atom        0.000000      0.000000      0.000000
     4   Atom       -0.000000     -0.000000     -0.000000
     5   Atom       -0.000000      0.000000     -0.000000
     6   Atom       -0.000000     -0.000000     -0.000000
     7   Atom       -0.000000      0.000000     -0.000000
     8   Atom        0.000000     -0.000000     -0.000000
     9   Atom       -0.000000      0.000000      0.000000
 --------------------------------------------------------


 ---------------------------------------------------------------------------------
              Anisotropic Spin Dipole Couplings in Principal Axis System
 ---------------------------------------------------------------------------------

       Atom             a.u.   MegaHertz   Gauss  10(-4) cm-1        Axes

              Baa    -0.0000    -0.000    -0.000    -0.000  0.1375  0.4259  0.8943
     1 N(14)  Bbb    -0.0000    -0.000    -0.000    -0.000  0.8151 -0.5617  0.1422
              Bcc     0.0000     0.000     0.000     0.000  0.5628  0.7093 -0.4244
 
              Baa    -0.0000    -0.000    -0.000    -0.000  0.6546  0.7161 -0.2424
     2 C(13)  Bbb     0.0000     0.000     0.000     0.000  0.5086 -0.1799  0.8420
              Bcc     0.0000     0.000     0.000     0.000 -0.5594  0.6744  0.4819
 
              Baa    -0.0000    -0.000    -0.000    -0.000 -0.0020  0.9998 -0.0180
     3 N(14)  Bbb     0.0000     0.000     0.000     0.000  0.9995  0.0015 -0.0310
              Bcc     0.0000     0.000     0.000     0.000  0.0309  0.0180  0.9994
 
              Baa    -0.0000    -0.000    -0.000    -0.000  0.0524  0.0203  0.9984
     4 N(14)  Bbb    -0.0000    -0.000    -0.000    -0.000  0.9568  0.2853 -0.0560
              Bcc     0.0000     0.000     0.000     0.000 -0.2860  0.9582 -0.0045
 
              Baa    -0.0000     0.000     0.000     0.000  0.1302  0.7611  0.6354
     5 O(17)  Bbb     0.0000    -0.000    -0.000    -0.000  0.6933  0.3883 -0.6071
              Bcc     0.0000    -0.000    -0.000    -0.000  0.7088 -0.5195  0.4771
 
              Baa    -0.0000    -0.000    -0.000    -0.000  0.6652  0.6859  0.2951
     6 N(14)  Bbb     0.0000     0.000     0.000     0.000 -0.6768  0.7208 -0.1499
              Bcc     0.0000     0.000     0.000     0.000 -0.3155 -0.1000  0.9436
 
              Baa    -0.0000    -0.000    -0.000    -0.000  0.8065  0.5807 -0.1110
     7 C(13)  Bbb     0.0000     0.000     0.000     0.000 -0.4066  0.6811  0.6090
              Bcc     0.0000     0.000     0.000     0.000  0.4292 -0.4460  0.7854
 
              Baa    -0.0000    -0.000    -0.000    -0.000  0.9222 -0.0387  0.3848
     8 H(1)   Bbb     0.0000     0.000     0.000     0.000 -0.3667  0.2285  0.9018
              Bcc     0.0000     0.000     0.000     0.000  0.1228  0.9728 -0.1965
 
              Baa    -0.0000    -0.000    -0.000    -0.000  0.6372  0.7590 -0.1336
     9 H(1)   Bbb     0.0000     0.000     0.000     0.000  0.7569 -0.5838  0.2936
              Bcc     0.0000     0.000     0.000     0.000 -0.1448  0.2882  0.9465
 

 ---------------------------------------------------------------------------------



 ANYONE WHO IS NOT SHOCKED BY QUANTUM THEORY HAS
 NOT UNDERSTOOD IT. -- NIELS BOHR(1885-1962)
 Error termination request processed by link 9999.
 Error termination via Lnk1e in /software/kemi/g16/avx2/g16/l9999.exe at Thu Jun 24 11:32:32 2021.
 Job cpu time:       0 days 13 hours  8 minutes 28.1 seconds.
 Elapsed time:       0 days  3 hours 19 minutes 23.7 seconds.
 File lengths (MBytes):  RWF=     63 Int=      0 D2E=      0 Chk=      6 Scr=      1
