 Entering Gaussian System, Link 0=/software/kemi/g16/avx2/g16/g16
 Initial command:
 /software/kemi/g16/avx2/g16/l1.exe "/scratch/23935644/Gau-14443.inp" -scrdir="/scratch/23935644/"
 Entering Link 1 = /software/kemi/g16/avx2/g16/l1.exe PID=     14444.
  
 Copyright (c) 1988,1990,1992,1993,1995,1998,2003,2009,2016,
            Gaussian, Inc.  All Rights Reserved.
  
 This is part of the Gaussian(R) 16 program.  It is based on
 the Gaussian(R) 09 system (copyright 2009, Gaussian, Inc.),
 the Gaussian(R) 03 system (copyright 2003, Gaussian, Inc.),
 the Gaussian(R) 98 system (copyright 1998, Gaussian, Inc.),
 the Gaussian(R) 94 system (copyright 1995, Gaussian, Inc.),
 the Gaussian 92(TM) system (copyright 1992, Gaussian, Inc.),
 the Gaussian 90(TM) system (copyright 1990, Gaussian, Inc.),
 the Gaussian 88(TM) system (copyright 1988, Gaussian, Inc.),
 the Gaussian 86(TM) system (copyright 1986, Carnegie Mellon
 University), and the Gaussian 82(TM) system (copyright 1983,
 Carnegie Mellon University). Gaussian is a federally registered
 trademark of Gaussian, Inc.
  
 This software contains proprietary and confidential information,
 including trade secrets, belonging to Gaussian, Inc.
  
 This software is provided under written license and may be
 used, copied, transmitted, or stored only in accord with that
 written license.
  
 The following legend is applicable only to US Government
 contracts under FAR:
  
                    RESTRICTED RIGHTS LEGEND
  
 Use, reproduction and disclosure by the US Government is
 subject to restrictions as set forth in subparagraphs (a)
 and (c) of the Commercial Computer Software - Restricted
 Rights clause in FAR 52.227-19.
  
 Gaussian, Inc.
 340 Quinnipiac St., Bldg. 40, Wallingford CT 06492
  
  
 ---------------------------------------------------------------
 Warning -- This program may not be used in any manner that
 competes with the business of Gaussian, Inc. or will provide
 assistance to any competitor of Gaussian, Inc.  The licensee
 of this program is prohibited from giving any competitor of
 Gaussian, Inc. access to this program.  By using this program,
 the user acknowledges that Gaussian, Inc. is engaged in the
 business of creating and licensing software in the field of
 computational chemistry and represents and warrants to the
 licensee that it is not a competitor of Gaussian, Inc. and that
 it will not use this program in any manner prohibited above.
 ---------------------------------------------------------------
  

 Cite this work as:
 Gaussian 16, Revision A.03,
 M. J. Frisch, G. W. Trucks, H. B. Schlegel, G. E. Scuseria, 
 M. A. Robb, J. R. Cheeseman, G. Scalmani, V. Barone, 
 G. A. Petersson, H. Nakatsuji, X. Li, M. Caricato, A. V. Marenich, 
 J. Bloino, B. G. Janesko, R. Gomperts, B. Mennucci, H. P. Hratchian, 
 J. V. Ortiz, A. F. Izmaylov, J. L. Sonnenberg, D. Williams-Young, 
 F. Ding, F. Lipparini, F. Egidi, J. Goings, B. Peng, A. Petrone, 
 T. Henderson, D. Ranasinghe, V. G. Zakrzewski, J. Gao, N. Rega, 
 G. Zheng, W. Liang, M. Hada, M. Ehara, K. Toyota, R. Fukuda, 
 J. Hasegawa, M. Ishida, T. Nakajima, Y. Honda, O. Kitao, H. Nakai, 
 T. Vreven, K. Throssell, J. A. Montgomery, Jr., J. E. Peralta, 
 F. Ogliaro, M. J. Bearpark, J. J. Heyd, E. N. Brothers, K. N. Kudin, 
 V. N. Staroverov, T. A. Keith, R. Kobayashi, J. Normand, 
 K. Raghavachari, A. P. Rendell, J. C. Burant, S. S. Iyengar, 
 J. Tomasi, M. Cossi, J. M. Millam, M. Klene, C. Adamo, R. Cammi, 
 J. W. Ochterski, R. L. Martin, K. Morokuma, O. Farkas, 
 J. B. Foresman, and D. J. Fox, Gaussian, Inc., Wallingford CT, 2016.
 
 ******************************************
 Gaussian 16:  ES64L-G16RevA.03 25-Dec-2016
                22-Jun-2021 
 ******************************************
 %nprocshared=4
 Will use up to    4 processors via shared memory.
 %mem=8GB
 ------------------
 # UwB97XD/Def2TZVP
 ------------------
 1/38=1,172=1/1;
 2/12=2,17=6,18=5,40=1/2;
 3/5=44,7=101,11=2,25=1,30=1,74=-58,116=2/1,2,3;
 4//1;
 5/5=2,38=5/2;
 6/7=2,8=2,9=2,10=2,28=1/1;
 99/5=1,9=1/99;
 ---------------
 something title
 ---------------
 Symbolic Z-matrix:
 Charge =  0 Multiplicity = 1
 N                    -0.49991  -0.16826  -1.2898 
 C                    -0.44596  -0.87764  -0.21443 
 N                    -1.54055  -1.10791   0.52386 
 N                    -2.62979  -1.36418   0.7331 
 O                     3.06748  -1.37995  -0.31017 
 N                     1.86424  -1.34994  -0.26454 
 C                     0.81738  -1.23826   0.42641 
 H                    -1.40991   0.21585  -1.54384 
 H                     0.7531   -1.54168   1.46173 
 
                          Input orientation:                          
 ---------------------------------------------------------------------
 Center     Atomic      Atomic             Coordinates (Angstroms)
 Number     Number       Type             X           Y           Z
 ---------------------------------------------------------------------
      1          7           0       -0.499906   -0.168259   -1.289800
      2          6           0       -0.445964   -0.877639   -0.214426
      3          7           0       -1.540548   -1.107912    0.523861
      4          7           0       -2.629794   -1.364175    0.733104
      5          8           0        3.067476   -1.379946   -0.310169
      6          7           0        1.864239   -1.349936   -0.264540
      7          6           0        0.817382   -1.238261    0.426407
      8          1           0       -1.409912    0.215846   -1.543843
      9          1           0        0.753103   -1.541684    1.461727
 ---------------------------------------------------------------------
                    Distance matrix (angstroms):
                    1          2          3          4          5
     1  N    0.000000
     2  C    1.289403   0.000000
     3  N    2.292433   1.340227   0.000000
     4  N    3.171558   2.429742   1.138381   0.000000
     5  O    3.892824   3.550456   4.690788   5.792025   0.000000
     6  N    2.834907   2.358519   3.503245   4.603458   1.204476
     7  C    2.413611   1.461765   2.363540   3.463082   2.371822
     8  H    1.019895   1.972880   2.458618   3.028047   4.910754
     9  H    3.320727   2.165227   2.515668   3.465024   2.919263
                    6          7          8          9
     6  N    0.000000
     7  C    1.259281   0.000000
     8  H    3.848162   3.310159   0.000000
     9  H    2.061889   1.080780   4.098902   0.000000
 Stoichiometry    C2H2N4O
 Framework group  C1[X(C2H2N4O)]
 Deg. of freedom    21
 Full point group                 C1      NOp   1
 Largest Abelian subgroup         C1      NOp   1
 Largest concise Abelian subgroup C1      NOp   1
                         Standard orientation:                         
 ---------------------------------------------------------------------
 Center     Atomic      Atomic             Coordinates (Angstroms)
 Number     Number       Type             X           Y           Z
 ---------------------------------------------------------------------
      1          7           0       -0.532632    1.549175    0.037694
      2          6           0       -0.563833    0.260475    0.008775
      3          7           0       -1.722641   -0.409897    0.071804
      4          7           0       -2.810607   -0.648351   -0.163528
      5          8           0        2.960282   -0.167201   -0.049964
      6          7           0        1.760896   -0.107268   -0.142934
      7          6           0        0.633275   -0.558704    0.189430
      8          1           0       -1.427925    2.030493    0.121170
      9          1           0        0.463907   -1.589125    0.468055
 ---------------------------------------------------------------------
 Rotational constants (GHZ):           9.1679944           1.4352553           1.2498893
 Standard basis: def2TZVP (5D, 7F)
 There are   264 symmetry adapted cartesian basis functions of A   symmetry.
 There are   229 symmetry adapted basis functions of A   symmetry.
   229 basis functions,   373 primitive gaussians,   264 cartesian basis functions
    25 alpha electrons       25 beta electrons
       nuclear repulsion energy       256.2526325985 Hartrees.
 NAtoms=    9 NActive=    9 NUniq=    9 SFac= 1.00D+00 NAtFMM=   60 NAOKFM=F Big=F
 Integral buffers will be    131072 words long.
 Raffenetti 2 integral format.
 Two-electron integral symmetry is turned on.
 Nuclear repulsion after empirical dispersion term =      256.2501034539 Hartrees.
 One-electron integrals computed using PRISM.
   1 Symmetry operations used in ECPInt.
 ECPInt:  NShTT=    3655 NPrTT=   11788 LenC2=    3519 LenP2D=    9050.
 LDataN:  DoStor=T MaxTD1= 6 Len=  172
 NBasis=   229 RedAO= T EigKep=  1.87D-04  NBF=   229
 NBsUse=   229 1.00D-06 EigRej= -1.00D+00 NBFU=   229
 ExpMin= 9.52D-02 ExpMax= 2.70D+04 ExpMxC= 9.22D+02 IAcc=3 IRadAn=         5 AccDes= 0.00D+00
 Harris functional with IExCor= 4639 and IRadAn=       5 diagonalized for initial guess.
 HarFok:  IExCor= 4639 AccDes= 0.00D+00 IRadAn=         5 IDoV= 1 UseB2=F ITyADJ=14
 ICtDFT=  3500011 ScaDFX=  1.000000  1.000000  1.000000  1.000000
 FoFCou: FMM=F IPFlag=           0 FMFlag=      100000 FMFlg1=           0
         NFxFlg=           0 DoJE=T BraDBF=F KetDBF=T FulRan=T
         wScrn=  0.000000 ICntrl=       500 IOpCl=  0 I1Cent=   200000004 NGrid=           0
         NMat0=    1 NMatS0=      1 NMatT0=    0 NMatD0=    1 NMtDS0=    0 NMtDT0=    0
 Petite list used in FoFCou.
 Initial guess <Sx>= 0.0000 <Sy>= 0.0000 <Sz>= 0.0000 <S**2>= 0.0000 S= 0.0000
 Requested convergence on RMS density matrix=1.00D-08 within 128 cycles.
 Requested convergence on MAX density matrix=1.00D-06.
 Requested convergence on             energy=1.00D-06.
 No special actions if energy rises.
 Integral accuracy reduced to 1.0D-05 until final iterations.
 EnCoef did     4 forward-backward iterations
 Initial convergence to 1.0D-05 achieved.  Increase integral accuracy.
 SCF Done:  E(UwB97XD) =  -371.400273578     A.U. after   27 cycles
            NFock= 27  Conv=0.67D-08     -V/T= 2.0038
 <Sx>= 0.0000 <Sy>= 0.0000 <Sz>= 0.0000 <S**2>= 0.0000 S= 0.0000
 <L.S>=  0.00000000000    
 Annihilation of the first spin contaminant:
 S**2 before annihilation     0.0000,   after    -0.0000

 **********************************************************************

            Population analysis using the SCF density.

 **********************************************************************

 Orbital symmetries:
 Alpha Orbitals:
       Occupied  (A) (A) (A) (A) (A) (A) (A) (A) (A) (A) (A) (A)
                 (A) (A) (A) (A) (A) (A) (A) (A) (A) (A) (A) (A)
                 (A)
       Virtual   (A) (A) (A) (A) (A) (A) (A) (A) (A) (A) (A) (A)
                 (A) (A) (A) (A) (A) (A) (A) (A) (A) (A) (A) (A)
                 (A) (A) (A) (A) (A) (A) (A) (A) (A) (A) (A) (A)
                 (A) (A) (A) (A) (A) (A) (A) (A) (A) (A) (A) (A)
                 (A) (A) (A) (A) (A) (A) (A) (A) (A) (A) (A) (A)
                 (A) (A) (A) (A) (A) (A) (A) (A) (A) (A) (A) (A)
                 (A) (A) (A) (A) (A) (A) (A) (A) (A) (A) (A) (A)
                 (A) (A) (A) (A) (A) (A) (A) (A) (A) (A) (A) (A)
                 (A) (A) (A) (A) (A) (A) (A) (A) (A) (A) (A) (A)
                 (A) (A) (A) (A) (A) (A) (A) (A) (A) (A) (A) (A)
                 (A) (A) (A) (A) (A) (A) (A) (A) (A) (A) (A) (A)
                 (A) (A) (A) (A) (A) (A) (A) (A) (A) (A) (A) (A)
                 (A) (A) (A) (A) (A) (A) (A) (A) (A) (A) (A) (A)
                 (A) (A) (A) (A) (A) (A) (A) (A) (A) (A) (A) (A)
                 (A) (A) (A) (A) (A) (A) (A) (A) (A) (A) (A) (A)
                 (A) (A) (A) (A) (A) (A) (A) (A) (A) (A) (A) (A)
                 (A) (A) (A) (A) (A) (A) (A) (A) (A) (A) (A) (A)
 Beta  Orbitals:
       Occupied  (A) (A) (A) (A) (A) (A) (A) (A) (A) (A) (A) (A)
                 (A) (A) (A) (A) (A) (A) (A) (A) (A) (A) (A) (A)
                 (A)
       Virtual   (A) (A) (A) (A) (A) (A) (A) (A) (A) (A) (A) (A)
                 (A) (A) (A) (A) (A) (A) (A) (A) (A) (A) (A) (A)
                 (A) (A) (A) (A) (A) (A) (A) (A) (A) (A) (A) (A)
                 (A) (A) (A) (A) (A) (A) (A) (A) (A) (A) (A) (A)
                 (A) (A) (A) (A) (A) (A) (A) (A) (A) (A) (A) (A)
                 (A) (A) (A) (A) (A) (A) (A) (A) (A) (A) (A) (A)
                 (A) (A) (A) (A) (A) (A) (A) (A) (A) (A) (A) (A)
                 (A) (A) (A) (A) (A) (A) (A) (A) (A) (A) (A) (A)
                 (A) (A) (A) (A) (A) (A) (A) (A) (A) (A) (A) (A)
                 (A) (A) (A) (A) (A) (A) (A) (A) (A) (A) (A) (A)
                 (A) (A) (A) (A) (A) (A) (A) (A) (A) (A) (A) (A)
                 (A) (A) (A) (A) (A) (A) (A) (A) (A) (A) (A) (A)
                 (A) (A) (A) (A) (A) (A) (A) (A) (A) (A) (A) (A)
                 (A) (A) (A) (A) (A) (A) (A) (A) (A) (A) (A) (A)
                 (A) (A) (A) (A) (A) (A) (A) (A) (A) (A) (A) (A)
                 (A) (A) (A) (A) (A) (A) (A) (A) (A) (A) (A) (A)
                 (A) (A) (A) (A) (A) (A) (A) (A) (A) (A) (A) (A)
 The electronic state is 1-A.
 Alpha  occ. eigenvalues --  -19.30231 -14.63165 -14.59303 -14.55619 -14.44028
 Alpha  occ. eigenvalues --  -10.41899 -10.35504  -1.28081  -1.25801  -1.07213
 Alpha  occ. eigenvalues --   -0.97913  -0.92525  -0.74178  -0.66968  -0.64067
 Alpha  occ. eigenvalues --   -0.63342  -0.61870  -0.59893  -0.57345  -0.56674
 Alpha  occ. eigenvalues --   -0.49407  -0.45686  -0.39207  -0.34071  -0.24869
 Alpha virt. eigenvalues --   -0.09088  -0.04432   0.02667   0.09995   0.13843
 Alpha virt. eigenvalues --    0.15060   0.18407   0.19077   0.24346   0.26994
 Alpha virt. eigenvalues --    0.28290   0.30107   0.31865   0.32557   0.34207
 Alpha virt. eigenvalues --    0.35806   0.38179   0.40292   0.41583   0.44532
 Alpha virt. eigenvalues --    0.45229   0.46409   0.48192   0.49197   0.50773
 Alpha virt. eigenvalues --    0.53361   0.54245   0.54820   0.54984   0.57005
 Alpha virt. eigenvalues --    0.57818   0.59886   0.61502   0.64584   0.65158
 Alpha virt. eigenvalues --    0.67704   0.70475   0.72742   0.77363   0.78873
 Alpha virt. eigenvalues --    0.80389   0.82161   0.86651   0.90791   0.92386
 Alpha virt. eigenvalues --    0.99065   1.00076   1.01528   1.04892   1.10005
 Alpha virt. eigenvalues --    1.11293   1.14665   1.20886   1.25161   1.29077
 Alpha virt. eigenvalues --    1.30222   1.31620   1.33270   1.38529   1.42750
 Alpha virt. eigenvalues --    1.43740   1.47151   1.50445   1.51117   1.53628
 Alpha virt. eigenvalues --    1.55697   1.58599   1.61028   1.64291   1.66170
 Alpha virt. eigenvalues --    1.68899   1.71039   1.75633   1.78414   1.81162
 Alpha virt. eigenvalues --    1.84399   1.87710   1.89749   1.91863   1.97386
 Alpha virt. eigenvalues --    2.02003   2.05364   2.07525   2.11219   2.13054
 Alpha virt. eigenvalues --    2.14404   2.18542   2.22501   2.24735   2.25603
 Alpha virt. eigenvalues --    2.29236   2.32853   2.37378   2.40257   2.43943
 Alpha virt. eigenvalues --    2.46927   2.49086   2.56459   2.60890   2.64435
 Alpha virt. eigenvalues --    2.66608   2.68638   2.74473   2.81587   2.85116
 Alpha virt. eigenvalues --    2.88448   2.92123   2.94212   2.97144   2.98647
 Alpha virt. eigenvalues --    3.01894   3.07944   3.11471   3.13643   3.15710
 Alpha virt. eigenvalues --    3.19281   3.23041   3.26266   3.27959   3.35651
 Alpha virt. eigenvalues --    3.38136   3.43467   3.47119   3.49340   3.55895
 Alpha virt. eigenvalues --    3.58088   3.61348   3.65020   3.70769   3.73514
 Alpha virt. eigenvalues --    3.74139   3.76767   3.78210   3.83218   3.86159
 Alpha virt. eigenvalues --    3.89603   3.95369   4.03446   4.03986   4.07983
 Alpha virt. eigenvalues --    4.11290   4.20910   4.22228   4.29768   4.31584
 Alpha virt. eigenvalues --    4.38354   4.38695   4.42597   4.43820   4.48647
 Alpha virt. eigenvalues --    4.51289   4.56413   4.61817   4.62853   4.65606
 Alpha virt. eigenvalues --    4.70636   4.72942   4.75986   4.78522   4.79069
 Alpha virt. eigenvalues --    4.81882   4.86247   4.91281   4.92423   4.99235
 Alpha virt. eigenvalues --    5.04443   5.04972   5.07985   5.11066   5.12450
 Alpha virt. eigenvalues --    5.15206   5.21449   5.23456   5.24467   5.26677
 Alpha virt. eigenvalues --    5.38593   5.39392   5.45290   5.54135   5.58413
 Alpha virt. eigenvalues --    5.72069   5.78464   5.79095   5.87241   6.01924
 Alpha virt. eigenvalues --    6.35103   6.35745   6.39469   6.52381   6.56957
 Alpha virt. eigenvalues --    6.62044   6.71884   6.87485   7.02706   7.13758
 Alpha virt. eigenvalues --    7.33612   7.43942  22.89767  23.30125  31.72384
 Alpha virt. eigenvalues --   32.07885  32.55601  32.92621  44.16048
  Beta  occ. eigenvalues --  -19.30231 -14.63165 -14.59303 -14.55619 -14.44028
  Beta  occ. eigenvalues --  -10.41899 -10.35504  -1.28081  -1.25801  -1.07213
  Beta  occ. eigenvalues --   -0.97913  -0.92525  -0.74178  -0.66968  -0.64067
  Beta  occ. eigenvalues --   -0.63342  -0.61870  -0.59893  -0.57345  -0.56674
  Beta  occ. eigenvalues --   -0.49407  -0.45686  -0.39207  -0.34071  -0.24869
  Beta virt. eigenvalues --   -0.09088  -0.04432   0.02667   0.09995   0.13843
  Beta virt. eigenvalues --    0.15060   0.18407   0.19077   0.24346   0.26994
  Beta virt. eigenvalues --    0.28290   0.30107   0.31865   0.32557   0.34207
  Beta virt. eigenvalues --    0.35806   0.38179   0.40292   0.41583   0.44532
  Beta virt. eigenvalues --    0.45229   0.46409   0.48192   0.49197   0.50773
  Beta virt. eigenvalues --    0.53361   0.54245   0.54820   0.54984   0.57005
  Beta virt. eigenvalues --    0.57818   0.59886   0.61502   0.64584   0.65158
  Beta virt. eigenvalues --    0.67704   0.70475   0.72742   0.77363   0.78873
  Beta virt. eigenvalues --    0.80389   0.82161   0.86651   0.90791   0.92386
  Beta virt. eigenvalues --    0.99065   1.00076   1.01528   1.04892   1.10005
  Beta virt. eigenvalues --    1.11293   1.14665   1.20886   1.25161   1.29077
  Beta virt. eigenvalues --    1.30222   1.31620   1.33270   1.38529   1.42750
  Beta virt. eigenvalues --    1.43740   1.47151   1.50445   1.51117   1.53628
  Beta virt. eigenvalues --    1.55697   1.58599   1.61028   1.64291   1.66170
  Beta virt. eigenvalues --    1.68899   1.71039   1.75633   1.78414   1.81162
  Beta virt. eigenvalues --    1.84399   1.87710   1.89749   1.91863   1.97386
  Beta virt. eigenvalues --    2.02003   2.05364   2.07525   2.11219   2.13054
  Beta virt. eigenvalues --    2.14404   2.18542   2.22501   2.24735   2.25603
  Beta virt. eigenvalues --    2.29236   2.32853   2.37378   2.40257   2.43943
  Beta virt. eigenvalues --    2.46927   2.49086   2.56459   2.60890   2.64435
  Beta virt. eigenvalues --    2.66608   2.68638   2.74473   2.81587   2.85116
  Beta virt. eigenvalues --    2.88448   2.92123   2.94212   2.97144   2.98647
  Beta virt. eigenvalues --    3.01894   3.07944   3.11471   3.13643   3.15710
  Beta virt. eigenvalues --    3.19281   3.23041   3.26266   3.27959   3.35651
  Beta virt. eigenvalues --    3.38136   3.43467   3.47119   3.49340   3.55895
  Beta virt. eigenvalues --    3.58088   3.61348   3.65020   3.70769   3.73514
  Beta virt. eigenvalues --    3.74139   3.76767   3.78210   3.83218   3.86159
  Beta virt. eigenvalues --    3.89603   3.95369   4.03446   4.03986   4.07983
  Beta virt. eigenvalues --    4.11290   4.20910   4.22228   4.29768   4.31584
  Beta virt. eigenvalues --    4.38354   4.38695   4.42597   4.43820   4.48647
  Beta virt. eigenvalues --    4.51289   4.56413   4.61817   4.62853   4.65606
  Beta virt. eigenvalues --    4.70636   4.72942   4.75986   4.78522   4.79069
  Beta virt. eigenvalues --    4.81882   4.86247   4.91281   4.92423   4.99235
  Beta virt. eigenvalues --    5.04443   5.04972   5.07985   5.11066   5.12450
  Beta virt. eigenvalues --    5.15206   5.21449   5.23456   5.24467   5.26677
  Beta virt. eigenvalues --    5.38593   5.39392   5.45290   5.54135   5.58413
  Beta virt. eigenvalues --    5.72069   5.78464   5.79095   5.87241   6.01924
  Beta virt. eigenvalues --    6.35103   6.35745   6.39469   6.52381   6.56957
  Beta virt. eigenvalues --    6.62044   6.71884   6.87485   7.02706   7.13758
  Beta virt. eigenvalues --    7.33612   7.43942  22.89767  23.30125  31.72384
  Beta virt. eigenvalues --   32.07885  32.55601  32.92621  44.16048
          Condensed to atoms (all electrons):
               1          2          3          4          5          6
     1  N    6.540392   0.687407  -0.085531  -0.003147  -0.000677  -0.001883
     2  C    0.687407   4.831736   0.297287  -0.063221   0.004555  -0.089251
     3  N   -0.085531   0.297287   6.305120   0.406813  -0.000157   0.001185
     4  N   -0.003147  -0.063221   0.406813   6.706151  -0.000004   0.001018
     5  O   -0.000677   0.004555  -0.000157  -0.000004   8.093700   0.253440
     6  N   -0.001883  -0.089251   0.001185   0.001018   0.253440   6.097169
     7  C   -0.095290   0.276778  -0.043523   0.006045  -0.065120   0.574591
     8  H    0.345172  -0.058436  -0.010895   0.000833   0.000009   0.000253
     9  H   -0.002468  -0.140100   0.024727   0.005828   0.003894  -0.024781
               7          8          9
     1  N   -0.095290   0.345172  -0.002468
     2  C    0.276778  -0.058436  -0.140100
     3  N   -0.043523  -0.010895   0.024727
     4  N    0.006045   0.000833   0.005828
     5  O   -0.065120   0.000009   0.003894
     6  N    0.574591   0.000253  -0.024781
     7  C    5.062430   0.014466   0.430770
     8  H    0.014466   0.486876  -0.000303
     9  H    0.430770  -0.000303   0.575855
          Atomic-Atomic Spin Densities.
               1          2          3          4          5          6
     1  N    0.000000  -0.000000  -0.000000   0.000000  -0.000000   0.000000
     2  C   -0.000000   0.000000   0.000000  -0.000000  -0.000000  -0.000000
     3  N   -0.000000   0.000000   0.000000  -0.000000   0.000000  -0.000000
     4  N    0.000000  -0.000000  -0.000000   0.000000   0.000000   0.000000
     5  O   -0.000000  -0.000000   0.000000   0.000000  -0.000000   0.000000
     6  N    0.000000  -0.000000  -0.000000   0.000000   0.000000  -0.000000
     7  C   -0.000000  -0.000000   0.000000   0.000000  -0.000000   0.000000
     8  H   -0.000000   0.000000  -0.000000   0.000000  -0.000000   0.000000
     9  H   -0.000000   0.000000  -0.000000  -0.000000  -0.000000   0.000000
               7          8          9
     1  N   -0.000000  -0.000000  -0.000000
     2  C   -0.000000   0.000000   0.000000
     3  N    0.000000  -0.000000  -0.000000
     4  N    0.000000   0.000000  -0.000000
     5  O   -0.000000  -0.000000  -0.000000
     6  N    0.000000   0.000000   0.000000
     7  C   -0.000000  -0.000000   0.000000
     8  H   -0.000000  -0.000000   0.000000
     9  H    0.000000   0.000000  -0.000000
 Mulliken charges and spin densities:
               1          2
     1  N   -0.383975   0.000000
     2  C    0.253244   0.000000
     3  N    0.104973   0.000000
     4  N   -0.060315   0.000000
     5  O   -0.289640  -0.000000
     6  N    0.188258  -0.000000
     7  C   -0.161147  -0.000000
     8  H    0.222025  -0.000000
     9  H    0.126578  -0.000000
 Sum of Mulliken charges =   0.00000   0.00000
 Mulliken charges and spin densities with hydrogens summed into heavy atoms:
               1          2
     1  N   -0.161951   0.000000
     2  C    0.253244   0.000000
     3  N    0.104973   0.000000
     4  N   -0.060315   0.000000
     5  O   -0.289640  -0.000000
     6  N    0.188258  -0.000000
     7  C   -0.034569  -0.000000
 Electronic spatial extent (au):  <R**2>=            831.7948
 Charge=              0.0000 electrons
 Dipole moment (field-independent basis, Debye):
    X=             -4.3106    Y=             -1.7251    Z=              0.5720  Tot=              4.6781
 Quadrupole moment (field-independent basis, Debye-Ang):
   XX=            -45.0690   YY=            -38.0341   ZZ=            -39.3582
   XY=             -3.2741   XZ=             -0.0143   YZ=              0.1694
 Traceless Quadrupole moment (field-independent basis, Debye-Ang):
   XX=             -4.2486   YY=              2.7863   ZZ=              1.4623
   XY=             -3.2741   XZ=             -0.0143   YZ=              0.1694
 Octapole moment (field-independent basis, Debye-Ang**2):
  XXX=            -19.9879  YYY=             -5.0642  ZZZ=             -0.5155  XYY=             -3.9543
  XXY=              8.2790  XXZ=              2.1145  XZZ=              1.2976  YZZ=             -1.0240
  YYZ=              1.1153  XYZ=              0.3080
 Hexadecapole moment (field-independent basis, Debye-Ang**3):
 XXXX=           -917.8917 YYYY=           -169.5973 ZZZZ=            -41.4839 XXXY=            -16.5253
 XXXZ=             -2.9264 YYYX=            -16.0690 YYYZ=              0.4594 ZZZX=             -0.9448
 ZZZY=              0.9675 XXYY=           -150.6089 XXZZ=           -141.4281 YYZZ=            -37.8792
 XXYZ=              2.1175 YYXZ=             -1.1383 ZZXY=             -0.4815
 N-N= 2.562501034539D+02 E-N=-1.381100795754D+03  KE= 3.700068309667D+02
                          Isotropic Fermi Contact Couplings
        Atom                 a.u.       MegaHertz       Gauss      10(-4) cm-1
     1  N(14)              0.00000       0.00000       0.00000       0.00000
     2  C(13)             -0.00000      -0.00000      -0.00000      -0.00000
     3  N(14)              0.00000       0.00000       0.00000       0.00000
     4  N(14)              0.00000       0.00000       0.00000       0.00000
     5  O(17)             -0.00000       0.00000       0.00000       0.00000
     6  N(14)             -0.00000      -0.00000      -0.00000      -0.00000
     7  C(13)             -0.00000      -0.00000      -0.00000      -0.00000
     8  H(1)              -0.00000      -0.00000      -0.00000      -0.00000
     9  H(1)              -0.00000      -0.00000      -0.00000      -0.00000
 --------------------------------------------------------
       Center         ----  Spin Dipole Couplings  ----
                      3XX-RR        3YY-RR        3ZZ-RR
 --------------------------------------------------------
     1   Atom       -0.000000     -0.000000      0.000000
     2   Atom       -0.000000      0.000000      0.000000
     3   Atom       -0.000000     -0.000000      0.000000
     4   Atom       -0.000000     -0.000000      0.000000
     5   Atom        0.000000     -0.000000      0.000000
     6   Atom        0.000000     -0.000000      0.000000
     7   Atom       -0.000000      0.000000     -0.000000
     8   Atom        0.000000     -0.000000     -0.000000
     9   Atom        0.000000     -0.000000      0.000000
 --------------------------------------------------------
                        XY            XZ            YZ
 --------------------------------------------------------
     1   Atom        0.000000      0.000000      0.000000
     2   Atom        0.000000      0.000000      0.000000
     3   Atom        0.000000     -0.000000     -0.000000
     4   Atom        0.000000     -0.000000     -0.000000
     5   Atom        0.000000     -0.000000      0.000000
     6   Atom        0.000000     -0.000000      0.000000
     7   Atom       -0.000000      0.000000      0.000000
     8   Atom       -0.000000     -0.000000      0.000000
     9   Atom       -0.000000      0.000000      0.000000
 --------------------------------------------------------


 ---------------------------------------------------------------------------------
              Anisotropic Spin Dipole Couplings in Principal Axis System
 ---------------------------------------------------------------------------------

       Atom             a.u.   MegaHertz   Gauss  10(-4) cm-1        Axes

              Baa    -0.0000    -0.000    -0.000    -0.000  0.8890 -0.4508 -0.0799
     1 N(14)  Bbb    -0.0000    -0.000    -0.000    -0.000  0.4466  0.8924 -0.0648
              Bcc     0.0000     0.000     0.000     0.000  0.1006  0.0219  0.9947
 
              Baa    -0.0000    -0.000    -0.000    -0.000  0.8821 -0.3372 -0.3291
     2 C(13)  Bbb    -0.0000    -0.000    -0.000    -0.000  0.0766  0.7918 -0.6059
              Bcc     0.0000     0.000     0.000     0.000  0.4648  0.5092  0.7243
 
              Baa    -0.0000    -0.000    -0.000    -0.000 -0.2845  0.9578  0.0400
     3 N(14)  Bbb    -0.0000    -0.000    -0.000    -0.000  0.9586  0.2840  0.0188
              Bcc     0.0000     0.000     0.000     0.000 -0.0067 -0.0437  0.9990
 
              Baa    -0.0000    -0.000    -0.000    -0.000  0.9901 -0.0626  0.1259
     4 N(14)  Bbb    -0.0000    -0.000    -0.000    -0.000  0.0473  0.9915  0.1212
              Bcc     0.0000     0.000     0.000     0.000 -0.1324 -0.1141  0.9846
 
              Baa    -0.0000     0.000     0.000     0.000 -0.1158  0.9638 -0.2403
     5 O(17)  Bbb     0.0000    -0.000    -0.000    -0.000  0.9877  0.1374  0.0751
              Bcc     0.0000    -0.000    -0.000    -0.000 -0.1055  0.2287  0.9678
 
              Baa    -0.0000    -0.000    -0.000    -0.000 -0.1327  0.9182 -0.3731
     6 N(14)  Bbb     0.0000     0.000     0.000     0.000  0.9811  0.0681 -0.1814
              Bcc     0.0000     0.000     0.000     0.000  0.1412  0.3901  0.9099
 
              Baa    -0.0000    -0.000    -0.000    -0.000 -0.6371 -0.1352  0.7588
     7 C(13)  Bbb     0.0000     0.000     0.000     0.000  0.6086  0.5158  0.6029
              Bcc     0.0000     0.000     0.000     0.000 -0.4729  0.8460 -0.2463
 
              Baa    -0.0000    -0.000    -0.000    -0.000  0.4792  0.8693 -0.1212
     8 H(1)   Bbb    -0.0000    -0.000    -0.000    -0.000  0.1111  0.0769  0.9908
              Bcc     0.0000     0.000     0.000     0.000  0.8707 -0.4882 -0.0598
 
              Baa    -0.0000    -0.000    -0.000    -0.000  0.4639  0.8749 -0.1391
     9 H(1)   Bbb     0.0000     0.000     0.000     0.000 -0.3283  0.3156  0.8903
              Bcc     0.0000     0.000     0.000     0.000  0.8228 -0.3673  0.4336
 

 ---------------------------------------------------------------------------------

 1\1\GINC-NODE305\SP\UwB97XD\def2TZVP\C2H2N4O1\MHARRIS\22-Jun-2021\0\\#
  UwB97XD/Def2TZVP\\something title\\0,1\N,0,-0.499906,-0.168259,-1.289
 8\C,0,-0.445964,-0.877639,-0.214426\N,0,-1.540548,-1.107912,0.523861\N
 ,0,-2.629794,-1.364175,0.733104\O,0,3.067476,-1.379946,-0.310169\N,0,1
 .864239,-1.349936,-0.26454\C,0,0.817382,-1.238261,0.426407\H,0,-1.4099
 12,0.215846,-1.543843\H,0,0.753103,-1.541684,1.461727\\Version=ES64L-G
 16RevA.03\State=1-A\HF=-371.4002736\S2=0.\S2-1=0.\S2A=0.\RMSD=6.692e-0
 9\Dipole=-1.6069309,-0.0638014,0.8950395\Quadrupole=-2.7490837,1.62955
 56,1.1195281,-1.0719163,2.555826,-0.5024161\PG=C01 [X(C2H2N4O1)]\\@


 I WANT IT ALL - RICH, THIN, AND CHOCOLATE.
 Job cpu time:       0 days  0 hours 23 minutes 41.4 seconds.
 Elapsed time:       0 days  0 hours  5 minutes 56.1 seconds.
 File lengths (MBytes):  RWF=     54 Int=      0 D2E=      0 Chk=      5 Scr=      1
 Normal termination of Gaussian 16 at Tue Jun 22 16:03:12 2021.
