      -----------------------------------------------------------      
     |                   =====================                   |     
     |                           x T B                           |     
     |                   =====================                   |     
     |                         S. Grimme                         |     
     |          Mulliken Center for Theoretical Chemistry        |     
     |                    University of Bonn                     |     
     |                 Version 6.1.4 (SAW190525)                 |     
      -----------------------------------------------------------      

   This program is distributed in the hope that it will be useful,
   but WITHOUT ANY WARRANTY; without even the implied warranty of
   MERCHANTABILITY or FITNESS FOR A PARTICULAR PURPOSE.
   
   FOR NON-COMMERCIAL, ACADEMIA USE ONLY.
   
   Cite this work as:
   S. Grimme, C. Bannwarth, P. Shushkov, J. Comput. Theory Chem., 2017,
   13, 1989-2009. DOI: 10.1021/acs.jctc.7b00118
   C. Bannwarth, S. Ehlert and S. Grimme., J. Comput. Theory Chem., 2019,
   just accepted. DOI: 10.1021/acs.jctc.8b01176
   
   for sTDA-xTB:
   S. Grimme and C. Bannwarth, J. Chem. Phys., 2016, 145, 054103.
   DOI: 10.1063/1.4959605
   
   in the mass-spec context:
   V. Asgeirsson, C. Bauer and S. Grimme, Chem. Sci., 2017, 8, 4879.
   DOI: 10.1039/c7sc00601b
   
   for metadynamics refer to:
   S. Grimme, J. Chem. Theory Comput. Article ASAP, 2019,
   DOI: 10.1021/acs.jctc.9b00143
   
   with help from (in alphabetical order)
   C. Bannwarth, F. Bohle, G. Brandenburg, E. Caldeweyher, M. Checinski,
   S. Dohm, S. Ehlert, S. Ehrlich, F. März, H. Neugebauer, J. Pisarek,
   P. Pracht, P. Shushkov, and S. Spicher.
   
 * started run on 2021/06/02 at 10:00:08.584     

           -------------------------------------------------
          |                Calculation Setup                |
           -------------------------------------------------

          program call               : /groups/kemi/koerstz/opt/xtb/6.1/bin/xtb path_point_19.xyz --gfn2 --acc 0.2 --chrg 0
          hostname                   : node305
          coordinate file            : path_point_19.xyz
          omp threads                :                     1
          number of atoms            :                     9
          number of electrons        :                    36
          charge                     :                     0
          spin                       :                   0.0
          first test random number   :      0.57023895227830


########################################################################
# WARNING! Please study the warnings concerning your input carefully
#  - XTBPATH is not set, using XTBHOME instead
########################################################################

           ------------------------------------------------- 
          |                 G F N 2 - x T B                 |
          | Geometry, Frequencies, Noncovalent interactions |
          |            JCTC 2018 parametrisation            |
           ------------------------------------------------- 
             k(s)              :                1.8500
             k(p)              :                2.2300
             k(d)              :                2.2300
             k(f)              :                2.0000
             kEN (H0ij)        :               -2.0000
             D4 a1             :                0.5200
             D4 a2             :                5.0000
             D4 s6             :                1.0000
             D4 s8             :                2.7000
             D4 s9             :                5.0000
             alphaj            :                2.0000

  Z AO/shell   Hii/eV     exponent
  1     Wed Apr 25 08:07:45 CEST 2018   EN: 2.200 GM2: 0.406  GM3: 0.0800  RAES: 1.40
     1s    -10.707211    1.230000
  6     Wed Apr 25 08:07:45 CEST 2018   EN: 2.550 GM2: 0.538  GM3: 0.1500  RAES: 3.00
     2s    -13.970922    2.096432
     2p    -10.063292    1.800000
  7     Wed Apr 25 08:07:45 CEST 2018   EN: 3.040 GM2: 0.461  GM3:-0.0640  RAES: 1.90
     2s    -16.686243    2.339881
     2p    -12.523956    2.014332
  8     Wed Apr 25 08:07:45 CEST 2018   EN: 3.440 GM2: 0.452  GM3:-0.0517  RAES: 1.80
     2s    -20.229985    2.439742
     2p    -15.503117    2.137023


            Z     q(EN)     CN     RAES       Cart. coordinates
     1  N   5.0   -0.42    2.02    1.90    -0.99456    -0.27067    -2.40324
     2  C   4.0    0.31    3.02    3.02    -0.82160    -1.58750    -0.36401
     3  N   5.0   -0.15    2.03    1.90    -2.90378    -2.15942     0.94172
     4  N   5.0   -0.15    1.00    1.90    -4.97376    -2.49222     1.42546
     5  O   6.0   -0.11    1.00    1.80     5.76615    -2.71677    -0.33521
     6  N   5.0   -0.14    2.01    1.90     3.52489    -2.42934    -0.65662
     7  C   4.0    0.13    3.01    3.02     1.56717    -2.33423     0.74068
     8  H   1.0    0.33    1.00    1.43    -2.74072     0.29816    -2.94863
     9  H   1.0    0.18    0.99    1.43     1.53101    -2.96019     2.69716

           ------------------------------------------------- 
          |        Self-Consistent Charge Iterations        |
           ------------------------------------------------- 

          ...................................................
          :                      SETUP                      :
          :.................................................:
          :  # basis functions                  30          :
          :  # atomic orbitals                  30          :
          :  # shells                           16          :
          :  # electrons                        36          :
          :  max. iterations                   250          :
          :  Hamiltonian                  GFN2-xTB          :
          :  restarted?                      false          :
          :  GBSA solvation                  false          :
          :  PC potential                    false          :
          :  electronic temp.          300.0000000     K    :
          :  accuracy                    0.2000000          :
          :  -> integral cutoff          0.3198970E+02      :
          :  -> integral neglect         0.2000000E-08      :
          :  -> SCF convergence          0.2000000E-06 Eh   :
          :  -> wf. convergence          0.2000000E-04 e    :
          :  Broyden damping             0.4000000          :
          ...................................................

 iter      E             dE          RMSdq      gap      omega  full diag
   1    -20.8284236 -0.208284E+02  0.745E+00    0.96       0.0  T
   2    -19.4834104  0.134501E+01  0.981E+00    0.16       1.0  T
   3    -20.8312857 -0.134788E+01  0.560E+00    2.00       1.0  T
   4    -20.8995642 -0.682785E-01  0.412E+00    1.07       1.0  T
   5    -20.9156873 -0.161231E-01  0.403E+00    0.26       1.0  T
   6    -21.0709197 -0.155232E+00  0.123E+00    0.17       1.0  T
   7    -20.8652283  0.205691E+00  0.437E+00    0.29       1.0  T
   8    -20.9019914 -0.367632E-01  0.389E+00    0.24       1.0  T
   9    -21.0678758 -0.165884E+00  0.907E-01    0.14       1.0  T
  10    -21.0769331 -0.905723E-02  0.227E-01    0.14       1.0  T
  11    -21.0724081  0.452501E-02  0.619E-01    0.14       1.0  T
  12    -21.0756795 -0.327147E-02  0.358E-01    0.14       1.0  T
  13    -21.0770786 -0.139908E-02  0.134E-01    0.14       1.0  T
  14    -21.0772302 -0.151555E-03  0.853E-02    0.14       1.0  T
  15    -21.0772211  0.901882E-05  0.870E-02    0.14       1.0  T
  16    -21.0773168 -0.956830E-04  0.183E-02    0.14       1.8  T
  17    -21.0773124  0.446388E-05  0.257E-02    0.14       1.3  T
  18    -21.0773210 -0.864340E-05  0.463E-03    0.14       7.2  T
  19    -21.0773213 -0.265811E-06  0.873E-04    0.14      38.2  T
  20    -21.0773213  0.961841E-08  0.116E-03    0.14      28.7  T
  21    -21.0773213 -0.183995E-07  0.784E-05    0.14     424.9  T
  22    -21.0773213 -0.533085E-10  0.401E-05    0.14     831.4  T

   *** convergence criteria satisfied after 22 iterations ***

         #    Occupation            Energy/Eh            Energy/eV
      -------------------------------------------------------------
         1        2.0000           -0.7511901             -20.4409
       ...           ...                  ...                  ...
        12        2.0000           -0.5511303             -14.9970
        13        2.0000           -0.5244069             -14.2698
        14        2.0000           -0.5068996             -13.7934
        15        2.0000           -0.5034997             -13.7009
        16        2.0000           -0.4320719             -11.7573
        17        2.0000           -0.4247198             -11.5572
        18        1.8749           -0.3646452              -9.9225 (HOMO)
        19        0.1251           -0.3595017              -9.7825 (LUMO)
        20                         -0.3436741              -9.3518
        21                         -0.2811129              -7.6495
        22                         -0.1834792              -4.9927
        23                          0.0274540               0.7471
       ...                                ...                  ...
        30                          0.8406631              22.8756
      -------------------------------------------------------------
                  HL-Gap            0.0051436 Eh            0.1400 eV
             Fermi-level           -0.3620734 Eh           -9.8525 eV

 SCC (total)                   0 d,  0 h,  0 min,  0.010 sec
 SCC setup                      ...        0 min,  0.000 sec (  1.475%)
 Dispersion                     ...        0 min,  0.000 sec (  0.649%)
 integral evaluation            ...        0 min,  0.001 sec ( 11.051%)
 zeroth order Hamiltonian       ...        0 min,  0.000 sec (  1.088%)
 iterations                     ...        0 min,  0.006 sec ( 63.777%)
 molecular gradient             ...        0 min,  0.002 sec ( 19.665%)
 printout                       ...        0 min,  0.000 sec (  1.956%)

         :::::::::::::::::::::::::::::::::::::::::::::::::::::
         ::                     SUMMARY                     ::
         :::::::::::::::::::::::::::::::::::::::::::::::::::::
         :: total energy              -20.832738143703 Eh   ::
         :: gradient norm               0.014942095741 Eh/α ::
         :: HOMO-LUMO gap               0.139963124688 eV   ::
         ::.................................................::
         :: SCC energy                -21.077321279732 Eh   ::
         :: -> isotropic ES             0.026645658860 Eh   ::
         :: -> anisotropic ES           0.004105389996 Eh   ::
         :: -> anisotropic XC           0.024382096346 Eh   ::
         :: -> dispersion              -0.005513318553 Eh   ::
         :: repulsion energy            0.244582333650 Eh   ::
         :: add. restraining            0.000000000000 Eh   ::
         :::::::::::::::::::::::::::::::::::::::::::::::::::::

           -------------------------------------------------
          |                Property Printout                |
           -------------------------------------------------

    * Orbital Energies and Occupations

         #    Occupation            Energy/Eh            Energy/eV
      -------------------------------------------------------------
         1        2.0000           -0.7511901             -20.4409
       ...           ...                  ...                  ...
         6        2.0000           -0.6324127             -17.2088
         7        2.0000           -0.6158909             -16.7592
         8        2.0000           -0.6051942             -16.4682
         9        2.0000           -0.5927913             -16.1307
        10        2.0000           -0.5869419             -15.9715
        11        2.0000           -0.5662256             -15.4078
        12        2.0000           -0.5511303             -14.9970
        13        2.0000           -0.5244069             -14.2698
        14        2.0000           -0.5068996             -13.7934
        15        2.0000           -0.5034997             -13.7009
        16        2.0000           -0.4320719             -11.7573
        17        2.0000           -0.4247198             -11.5572
        18        1.8749           -0.3646452              -9.9225 (HOMO)
        19        0.1251           -0.3595017              -9.7825 (LUMO)
        20                         -0.3436741              -9.3518
        21                         -0.2811129              -7.6495
        22                         -0.1834792              -4.9927
        23                          0.0274540               0.7471
        24                          0.0523337               1.4241
        25                          0.1697952               4.6204
        26                          0.2017962               5.4912
        27                          0.3315999               9.0233
        28                          0.4592639              12.4972
        29                          0.6195670              16.8593
        30                          0.8406631              22.8756
      -------------------------------------------------------------
                  HL-Gap            0.0051436 Eh            0.1400 eV
             Fermi-level           -0.3620734 Eh           -9.8525 eV

   #   Z        covCN         q      C6AA      α(0)
   1   7 N      1.793    -0.304    28.717     7.938
   2   6 C      2.816     0.150    24.734     8.149
   3   7 N      1.918     0.136    19.549     6.556
   4   7 N      0.984    -0.089    22.619     6.840
   5   8 O      0.926    -0.267    19.174     5.872
   6   7 N      1.846     0.175    18.906     6.444
   7   6 C      2.833    -0.031    28.771     8.790
   8   1 H      0.860     0.158     1.347     1.818
   9   1 H      0.925     0.073     2.050     2.239

 Mol. C6AA /au·bohr⁶  :       1305.146499
 Mol. C8AA /au·bohr⁸  :      29813.780278
 Mol. α(0) /au        :         54.646046


Wiberg/Mayer (AO) data.
largest (>0.10) Wiberg bond orders for each atom
          total WBO             WBO to atom ...
     1  N   3.085        C    2 1.527    H    8 0.945    N    4 0.170    O    5 0.126    N    3 0.125    N    6 0.120
     2  C   3.933        N    1 1.527    N    3 1.131    C    7 1.083    N    4 0.113
     3  N   3.685        N    4 2.267    C    2 1.131    N    1 0.125
     4  N   2.757        N    3 2.267    N    1 0.170    N    6 0.147    C    2 0.113
     5  O   1.980        N    6 1.498    C    7 0.241    N    1 0.126
     6  N   3.459        C    7 1.584    O    5 1.498    N    4 0.147    N    1 0.120
     7  C   3.942        N    6 1.584    C    2 1.083    H    9 0.914    O    5 0.241
     8  H   0.975        N    1 0.945
     9  H   0.981        C    7 0.914

molecular dipole:
                 x           y           z       tot (Debye)
 q only:       -1.064      -0.022       0.360
   full:       -1.284      -0.050       0.618       3.624
molecular quadrupole (traceless):
                xx          xy          yy          xz          yz          zz
 q only:       -6.751       3.296       3.259       1.851      -1.055       3.492
  q+dip:       -9.130       2.773       4.568       4.597      -1.807       4.563
   full:      -10.266       2.694       5.779       5.172      -1.492       4.487


           -------------------------------------------------
          | TOTAL ENERGY              -20.832738143703 Eh   |
          | GRADIENT NORM               0.014942095741 Eh/α |
          | HOMO-LUMO GAP               0.139963124688 eV   |
           -------------------------------------------------

------------------------------------------------------------------------
 * finished run on 2021/06/02 at 10:00:08.602     
------------------------------------------------------------------------
 total:
 * wall-time:     0 d,  0 h,  0 min,  0.017 sec
 *  cpu-time:     0 d,  0 h,  0 min,  0.017 sec
 * ratio c/w:     0.985 speedup
 SCF:
 * wall-time:     0 d,  0 h,  0 min,  0.010 sec
 *  cpu-time:     0 d,  0 h,  0 min,  0.010 sec
 * ratio c/w:     0.995 speedup

