      -----------------------------------------------------------      
     |                   =====================                   |     
     |                           x T B                           |     
     |                   =====================                   |     
     |                         S. Grimme                         |     
     |          Mulliken Center for Theoretical Chemistry        |     
     |                    University of Bonn                     |     
     |                 Version 6.1.4 (SAW190525)                 |     
      -----------------------------------------------------------      

   This program is distributed in the hope that it will be useful,
   but WITHOUT ANY WARRANTY; without even the implied warranty of
   MERCHANTABILITY or FITNESS FOR A PARTICULAR PURPOSE.
   
   FOR NON-COMMERCIAL, ACADEMIA USE ONLY.
   
   Cite this work as:
   S. Grimme, C. Bannwarth, P. Shushkov, J. Comput. Theory Chem., 2017,
   13, 1989-2009. DOI: 10.1021/acs.jctc.7b00118
   C. Bannwarth, S. Ehlert and S. Grimme., J. Comput. Theory Chem., 2019,
   just accepted. DOI: 10.1021/acs.jctc.8b01176
   
   for sTDA-xTB:
   S. Grimme and C. Bannwarth, J. Chem. Phys., 2016, 145, 054103.
   DOI: 10.1063/1.4959605
   
   in the mass-spec context:
   V. Asgeirsson, C. Bauer and S. Grimme, Chem. Sci., 2017, 8, 4879.
   DOI: 10.1039/c7sc00601b
   
   for metadynamics refer to:
   S. Grimme, J. Chem. Theory Comput. Article ASAP, 2019,
   DOI: 10.1021/acs.jctc.9b00143
   
   with help from (in alphabetical order)
   C. Bannwarth, F. Bohle, G. Brandenburg, E. Caldeweyher, M. Checinski,
   S. Dohm, S. Ehlert, S. Ehrlich, F. März, H. Neugebauer, J. Pisarek,
   P. Pracht, P. Shushkov, and S. Spicher.
   
 * started run on 2021/06/02 at 10:00:08.711     

           -------------------------------------------------
          |                Calculation Setup                |
           -------------------------------------------------

          program call               : /groups/kemi/koerstz/opt/xtb/6.1/bin/xtb path_point_8.xyz --gfn2 --acc 0.2 --chrg 0
          hostname                   : node305
          coordinate file            : path_point_8.xyz
          omp threads                :                     1
          number of atoms            :                     9
          number of electrons        :                    36
          charge                     :                     0
          spin                       :                   0.0
          first test random number   :      0.31083642850681


########################################################################
# WARNING! Please study the warnings concerning your input carefully
#  - XTBPATH is not set, using XTBHOME instead
########################################################################

           ------------------------------------------------- 
          |                 G F N 2 - x T B                 |
          | Geometry, Frequencies, Noncovalent interactions |
          |            JCTC 2018 parametrisation            |
           ------------------------------------------------- 
             k(s)              :                1.8500
             k(p)              :                2.2300
             k(d)              :                2.2300
             k(f)              :                2.0000
             kEN (H0ij)        :               -2.0000
             D4 a1             :                0.5200
             D4 a2             :                5.0000
             D4 s6             :                1.0000
             D4 s8             :                2.7000
             D4 s9             :                5.0000
             alphaj            :                2.0000

  Z AO/shell   Hii/eV     exponent
  1     Wed Apr 25 08:07:45 CEST 2018   EN: 2.200 GM2: 0.406  GM3: 0.0800  RAES: 1.40
     1s    -10.707211    1.230000
  6     Wed Apr 25 08:07:45 CEST 2018   EN: 2.550 GM2: 0.538  GM3: 0.1500  RAES: 3.00
     2s    -13.970922    2.096432
     2p    -10.063292    1.800000
  7     Wed Apr 25 08:07:45 CEST 2018   EN: 3.040 GM2: 0.461  GM3:-0.0640  RAES: 1.90
     2s    -16.686243    2.339881
     2p    -12.523956    2.014332
  8     Wed Apr 25 08:07:45 CEST 2018   EN: 3.440 GM2: 0.452  GM3:-0.0517  RAES: 1.80
     2s    -20.229985    2.439742
     2p    -15.503117    2.137023


            Z     q(EN)     CN     RAES       Cart. coordinates
     1  N   5.0   -0.42    2.01    1.90    -0.93176    -0.33189    -2.44102
     2  C   4.0    0.31    3.01    3.02    -0.84489    -1.68277    -0.41405
     3  N   5.0   -0.15    2.02    1.90    -2.92010    -2.11727     0.96800
     4  N   5.0   -0.15    1.00    1.90    -4.97384    -2.51985     1.42044
     5  O   6.0   -0.10    1.00    1.80     5.79497    -2.56571    -0.62466
     6  N   5.0   -0.15    2.01    1.90     3.53515    -2.52956    -0.45761
     7  C   4.0    0.14    3.01    3.02     1.53910    -2.36857     0.80936
     8  H   1.0    0.33    1.00    1.43    -2.64874     0.39946    -2.92527
     9  H   1.0    0.18    1.00    1.43     1.40490    -2.93603     2.76212

           ------------------------------------------------- 
          |        Self-Consistent Charge Iterations        |
           ------------------------------------------------- 
q/qsh data taken from xtbrestart
CAMM data taken from xtbrestart

          ...................................................
          :                      SETUP                      :
          :.................................................:
          :  # basis functions                  30          :
          :  # atomic orbitals                  30          :
          :  # shells                           16          :
          :  # electrons                        36          :
          :  max. iterations                   250          :
          :  Hamiltonian                  GFN2-xTB          :
          :  restarted?                       true          :
          :  GBSA solvation                  false          :
          :  PC potential                    false          :
          :  electronic temp.          300.0000000     K    :
          :  accuracy                    0.2000000          :
          :  -> integral cutoff          0.3198970E+02      :
          :  -> integral neglect         0.2000000E-08      :
          :  -> SCF convergence          0.2000000E-06 Eh   :
          :  -> wf. convergence          0.2000000E-04 e    :
          :  Broyden damping             0.4000000          :
          ...................................................

 iter      E             dE          RMSdq      gap      omega  full diag
   1    -21.0242471 -0.210242E+02  0.215E+00    0.22       0.0  T
   2    -20.7770999  0.247147E+00  0.534E+00    1.86       1.0  T
   3    -20.9117582 -0.134658E+00  0.362E+00    0.52       1.0  T
   4    -21.0564773 -0.144719E+00  0.138E+00    0.20       1.0  T
   5    -21.0650316 -0.855436E-02  0.110E+00    0.20       1.0  T
   6    -21.0751952 -0.101636E-01  0.649E-01    0.20       1.0  T
   7    -21.0749611  0.234143E-03  0.648E-01    0.19       1.0  T
   8    -21.0802735 -0.531244E-02  0.128E-01    0.18       1.0  T
   9    -21.0804535 -0.180054E-03  0.214E-02    0.18       1.6  T
  10    -21.0799442  0.509342E-03  0.199E-01    0.19       1.0  T
  11    -21.0804521 -0.507860E-03  0.152E-02    0.18       2.2  T
  12    -21.0804505  0.157944E-05  0.188E-02    0.19       1.8  T
  13    -21.0804410  0.951236E-05  0.330E-02    0.18       1.0  T
  14    -21.0804546 -0.136547E-04  0.530E-03    0.18       6.3  T
  15    -21.0804549 -0.280402E-06  0.252E-03    0.18      13.2  T
  16    -21.0804550 -0.627286E-07  0.120E-03    0.19      27.8  T
  17    -21.0804550 -0.184540E-07  0.215E-05    0.19    1549.7  T
  18    -21.0804550  0.366889E-10  0.569E-05    0.19     585.9  T

   *** convergence criteria satisfied after 18 iterations ***

         #    Occupation            Energy/Eh            Energy/eV
      -------------------------------------------------------------
         1        2.0000           -0.7533100             -20.4986
       ...           ...                  ...                  ...
        12        2.0000           -0.5541603             -15.0795
        13        2.0000           -0.5155189             -14.0280
        14        2.0000           -0.5054856             -13.7550
        15        2.0000           -0.4997568             -13.5991
        16        2.0000           -0.4304135             -11.7121
        17        2.0000           -0.4248819             -11.5616
        18        1.9457           -0.3555498              -9.6750 (HOMO)
        19        0.0543           -0.3487509              -9.4900 (LUMO)
        20                         -0.3317230              -9.0266
        21                         -0.2785473              -7.5797
        22                         -0.1836934              -4.9986
        23                          0.0175152               0.4766
       ...                                ...                  ...
        30                          0.8660779              23.5672
      -------------------------------------------------------------
                  HL-Gap            0.0067988 Eh            0.1850 eV
             Fermi-level           -0.3521504 Eh           -9.5825 eV

 SCC (total)                   0 d,  0 h,  0 min,  0.008 sec
 SCC setup                      ...        0 min,  0.000 sec (  1.532%)
 Dispersion                     ...        0 min,  0.000 sec (  0.713%)
 integral evaluation            ...        0 min,  0.001 sec ( 12.541%)
 zeroth order Hamiltonian       ...        0 min,  0.000 sec (  0.391%)
 iterations                     ...        0 min,  0.005 sec ( 60.058%)
 molecular gradient             ...        0 min,  0.002 sec ( 22.441%)
 printout                       ...        0 min,  0.000 sec (  1.922%)

         :::::::::::::::::::::::::::::::::::::::::::::::::::::
         ::                     SUMMARY                     ::
         :::::::::::::::::::::::::::::::::::::::::::::::::::::
         :: total energy              -20.828734806249 Eh   ::
         :: gradient norm               0.043770128909 Eh/α ::
         :: HOMO-LUMO gap               0.185005654118 eV   ::
         ::.................................................::
         :: SCC energy                -21.080454985046 Eh   ::
         :: -> isotropic ES             0.025595068412 Eh   ::
         :: -> anisotropic ES           0.004539544570 Eh   ::
         :: -> anisotropic XC           0.024618099053 Eh   ::
         :: -> dispersion              -0.005511682223 Eh   ::
         :: repulsion energy            0.251719392989 Eh   ::
         :: add. restraining            0.000000000000 Eh   ::
         :::::::::::::::::::::::::::::::::::::::::::::::::::::

           -------------------------------------------------
          |                Property Printout                |
           -------------------------------------------------

    * Orbital Energies and Occupations

         #    Occupation            Energy/Eh            Energy/eV
      -------------------------------------------------------------
         1        2.0000           -0.7533100             -20.4986
       ...           ...                  ...                  ...
         6        2.0000           -0.6324243             -17.2091
         7        2.0000           -0.6112131             -16.6320
         8        2.0000           -0.6069325             -16.5155
         9        2.0000           -0.5970189             -16.2457
        10        2.0000           -0.5890683             -16.0294
        11        2.0000           -0.5707399             -15.5306
        12        2.0000           -0.5541603             -15.0795
        13        2.0000           -0.5155189             -14.0280
        14        2.0000           -0.5054856             -13.7550
        15        2.0000           -0.4997568             -13.5991
        16        2.0000           -0.4304135             -11.7121
        17        2.0000           -0.4248819             -11.5616
        18        1.9457           -0.3555498              -9.6750 (HOMO)
        19        0.0543           -0.3487509              -9.4900 (LUMO)
        20                         -0.3317230              -9.0266
        21                         -0.2785473              -7.5797
        22                         -0.1836934              -4.9986
        23                          0.0175152               0.4766
        24                          0.0578706               1.5747
        25                          0.1661842               4.5221
        26                          0.1896758               5.1613
        27                          0.3178966               8.6504
        28                          0.4569143              12.4333
        29                          0.7329128              19.9436
        30                          0.8660779              23.5672
      -------------------------------------------------------------
                  HL-Gap            0.0067988 Eh            0.1850 eV
             Fermi-level           -0.3521504 Eh           -9.5825 eV

   #   Z        covCN         q      C6AA      α(0)
   1   7 N      1.787    -0.319    29.091     7.989
   2   6 C      2.814     0.141    24.913     8.178
   3   7 N      1.914     0.125    19.723     6.585
   4   7 N      0.985    -0.108    22.984     6.895
   5   8 O      0.924    -0.251    18.901     5.830
   6   7 N      1.844     0.205    18.442     6.364
   7   6 C      2.831    -0.033    28.803     8.794
   8   1 H      0.860     0.154     1.377     1.838
   9   1 H      0.926     0.086     1.922     2.168

 Mol. C6AA /au·bohr⁶  :       1304.841125
 Mol. C8AA /au·bohr⁸  :      29827.865791
 Mol. α(0) /au        :         54.641301


Wiberg/Mayer (AO) data.
largest (>0.10) Wiberg bond orders for each atom
          total WBO             WBO to atom ...
     1  N   3.094        C    2 1.522    H    8 0.944    N    4 0.152    N    6 0.147    O    5 0.137    N    3 0.126
     2  C   3.931        N    1 1.522    N    3 1.144    C    7 1.037    N    4 0.135
     3  N   3.698        N    4 2.252    C    2 1.144    N    1 0.126
     4  N   2.777        N    3 2.252    N    6 0.178    N    1 0.152    C    2 0.135
     5  O   2.038        N    6 1.509    C    7 0.266    N    1 0.137
     6  N   3.609        C    7 1.643    O    5 1.509    N    4 0.178    N    1 0.147
     7  C   3.948        N    6 1.643    C    2 1.037    H    9 0.904    O    5 0.266
     8  H   0.976        N    1 0.944
     9  H   0.986        C    7 0.904

molecular dipole:
                 x           y           z       tot (Debye)
 q only:       -0.722      -0.111       0.512
   full:       -0.918      -0.114       0.762       3.046
molecular quadrupole (traceless):
                xx          xy          yy          xz          yz          zz
 q only:       -6.684       1.556       3.763       2.688      -1.513       2.921
  q+dip:       -8.910       0.752       5.062       5.506      -2.317       3.849
   full:      -10.102       0.634       6.201       6.189      -2.116       3.900


           -------------------------------------------------
          | TOTAL ENERGY              -20.828734806249 Eh   |
          | GRADIENT NORM               0.043770128909 Eh/α |
          | HOMO-LUMO GAP               0.185005654118 eV   |
           -------------------------------------------------

------------------------------------------------------------------------
 * finished run on 2021/06/02 at 10:00:08.728     
------------------------------------------------------------------------
 total:
 * wall-time:     0 d,  0 h,  0 min,  0.017 sec
 *  cpu-time:     0 d,  0 h,  0 min,  0.017 sec
 * ratio c/w:     0.987 speedup
 SCF:
 * wall-time:     0 d,  0 h,  0 min,  0.009 sec
 *  cpu-time:     0 d,  0 h,  0 min,  0.009 sec
 * ratio c/w:     1.000 speedup

