 Entering Gaussian System, Link 0=/software/kemi/g16/avx2/g16/g16
 Initial command:
 /software/kemi/g16/avx2/g16/l1.exe "/scratch/23935644/Gau-15157.inp" -scrdir="/scratch/23935644/"
 Entering Link 1 = /software/kemi/g16/avx2/g16/l1.exe PID=     15158.
  
 Copyright (c) 1988,1990,1992,1993,1995,1998,2003,2009,2016,
            Gaussian, Inc.  All Rights Reserved.
  
 This is part of the Gaussian(R) 16 program.  It is based on
 the Gaussian(R) 09 system (copyright 2009, Gaussian, Inc.),
 the Gaussian(R) 03 system (copyright 2003, Gaussian, Inc.),
 the Gaussian(R) 98 system (copyright 1998, Gaussian, Inc.),
 the Gaussian(R) 94 system (copyright 1995, Gaussian, Inc.),
 the Gaussian 92(TM) system (copyright 1992, Gaussian, Inc.),
 the Gaussian 90(TM) system (copyright 1990, Gaussian, Inc.),
 the Gaussian 88(TM) system (copyright 1988, Gaussian, Inc.),
 the Gaussian 86(TM) system (copyright 1986, Carnegie Mellon
 University), and the Gaussian 82(TM) system (copyright 1983,
 Carnegie Mellon University). Gaussian is a federally registered
 trademark of Gaussian, Inc.
  
 This software contains proprietary and confidential information,
 including trade secrets, belonging to Gaussian, Inc.
  
 This software is provided under written license and may be
 used, copied, transmitted, or stored only in accord with that
 written license.
  
 The following legend is applicable only to US Government
 contracts under FAR:
  
                    RESTRICTED RIGHTS LEGEND
  
 Use, reproduction and disclosure by the US Government is
 subject to restrictions as set forth in subparagraphs (a)
 and (c) of the Commercial Computer Software - Restricted
 Rights clause in FAR 52.227-19.
  
 Gaussian, Inc.
 340 Quinnipiac St., Bldg. 40, Wallingford CT 06492
  
  
 ---------------------------------------------------------------
 Warning -- This program may not be used in any manner that
 competes with the business of Gaussian, Inc. or will provide
 assistance to any competitor of Gaussian, Inc.  The licensee
 of this program is prohibited from giving any competitor of
 Gaussian, Inc. access to this program.  By using this program,
 the user acknowledges that Gaussian, Inc. is engaged in the
 business of creating and licensing software in the field of
 computational chemistry and represents and warrants to the
 licensee that it is not a competitor of Gaussian, Inc. and that
 it will not use this program in any manner prohibited above.
 ---------------------------------------------------------------
  

 Cite this work as:
 Gaussian 16, Revision A.03,
 M. J. Frisch, G. W. Trucks, H. B. Schlegel, G. E. Scuseria, 
 M. A. Robb, J. R. Cheeseman, G. Scalmani, V. Barone, 
 G. A. Petersson, H. Nakatsuji, X. Li, M. Caricato, A. V. Marenich, 
 J. Bloino, B. G. Janesko, R. Gomperts, B. Mennucci, H. P. Hratchian, 
 J. V. Ortiz, A. F. Izmaylov, J. L. Sonnenberg, D. Williams-Young, 
 F. Ding, F. Lipparini, F. Egidi, J. Goings, B. Peng, A. Petrone, 
 T. Henderson, D. Ranasinghe, V. G. Zakrzewski, J. Gao, N. Rega, 
 G. Zheng, W. Liang, M. Hada, M. Ehara, K. Toyota, R. Fukuda, 
 J. Hasegawa, M. Ishida, T. Nakajima, Y. Honda, O. Kitao, H. Nakai, 
 T. Vreven, K. Throssell, J. A. Montgomery, Jr., J. E. Peralta, 
 F. Ogliaro, M. J. Bearpark, J. J. Heyd, E. N. Brothers, K. N. Kudin, 
 V. N. Staroverov, T. A. Keith, R. Kobayashi, J. Normand, 
 K. Raghavachari, A. P. Rendell, J. C. Burant, S. S. Iyengar, 
 J. Tomasi, M. Cossi, J. M. Millam, M. Klene, C. Adamo, R. Cammi, 
 J. W. Ochterski, R. L. Martin, K. Morokuma, O. Farkas, 
 J. B. Foresman, and D. J. Fox, Gaussian, Inc., Wallingford CT, 2016.
 
 ******************************************
 Gaussian 16:  ES64L-G16RevA.03 25-Dec-2016
                22-Jun-2021 
 ******************************************
 %nprocshared=4
 Will use up to    4 processors via shared memory.
 %mem=8GB
 ------------------
 # UwB97XD/Def2TZVP
 ------------------
 1/38=1,172=1/1;
 2/12=2,17=6,18=5,40=1/2;
 3/5=44,7=101,11=2,25=1,30=1,74=-58,116=2/1,2,3;
 4//1;
 5/5=2,38=5/2;
 6/7=2,8=2,9=2,10=2,28=1/1;
 99/5=1,9=1/99;
 ---------------
 something title
 ---------------
 Symbolic Z-matrix:
 Charge =  0 Multiplicity = 1
 N                    -0.5095   -0.15982  -1.2812 
 C                    -0.44059  -0.86628  -0.20578 
 N                    -1.54185  -1.13651   0.50108 
 N                    -2.63269  -1.31622   0.75864 
 O                     3.05782  -1.39554  -0.2515 
 N                     1.86962  -1.30576  -0.29403 
 C                     0.82184  -1.24778   0.40866 
 H                    -1.42625   0.18028  -1.55608 
 H                     0.77765  -1.56434   1.44253 
 
                          Input orientation:                          
 ---------------------------------------------------------------------
 Center     Atomic      Atomic             Coordinates (Angstroms)
 Number     Number       Type             X           Y           Z
 ---------------------------------------------------------------------
      1          7           0       -0.509500   -0.159816   -1.281198
      2          6           0       -0.440585   -0.866278   -0.205781
      3          7           0       -1.541847   -1.136509    0.501078
      4          7           0       -2.632688   -1.316221    0.758638
      5          8           0        3.057821   -1.395541   -0.251500
      6          7           0        1.869624   -1.305759   -0.294032
      7          6           0        0.821842   -1.247784    0.408663
      8          1           0       -1.426245    0.180281   -1.556081
      9          1           0        0.777651   -1.564339    1.442532
 ---------------------------------------------------------------------
                    Distance matrix (angstroms):
                    1          2          3          4          5
     1  N    0.000000
     2  C    1.288549   0.000000
     3  N    2.279513   1.336208   0.000000
     4  N    3.163247   2.436774   1.135151   0.000000
     5  O    3.913192   3.538510   4.668021   5.780014   0.000000
     6  N    2.819204   2.353295   3.506990   4.623747   1.192343
     7  C    2.410763   1.454926   2.368111   3.472887   2.336076
     8  H    1.015701   1.972339   2.445241   3.008812   4.928691
     9  H    3.323875   2.165254   2.539576   3.487074   2.845595
                    6          7          8          9
     6  N    0.000000
     7  C    1.262929   0.000000
     8  H    3.829339   3.309605   0.000000
     9  H    2.067589   1.082148   4.110053   0.000000
 Stoichiometry    C2H2N4O
 Framework group  C1[X(C2H2N4O)]
 Deg. of freedom    21
 Full point group                 C1      NOp   1
 Largest Abelian subgroup         C1      NOp   1
 Largest concise Abelian subgroup C1      NOp   1
                         Standard orientation:                         
 ---------------------------------------------------------------------
 Center     Atomic      Atomic             Coordinates (Angstroms)
 Number     Number       Type             X           Y           Z
 ---------------------------------------------------------------------
      1          7           0       -0.551699    1.544046    0.041976
      2          6           0       -0.559601    0.255790    0.015620
      3          7           0       -1.714192   -0.416707    0.026569
      4          7           0       -2.812801   -0.662182   -0.119614
      5          8           0        2.948476   -0.203785   -0.041315
      6          7           0        1.769760   -0.046473   -0.128290
      7          6           0        0.646485   -0.544317    0.163929
      8          1           0       -1.451528    2.013862    0.077042
      9          1           0        0.504945   -1.583216    0.431697
 ---------------------------------------------------------------------
 Rotational constants (GHZ):           9.2618293           1.4385747           1.2513622
 Standard basis: def2TZVP (5D, 7F)
 There are   264 symmetry adapted cartesian basis functions of A   symmetry.
 There are   229 symmetry adapted basis functions of A   symmetry.
   229 basis functions,   373 primitive gaussians,   264 cartesian basis functions
    25 alpha electrons       25 beta electrons
       nuclear repulsion energy       256.9423461537 Hartrees.
 NAtoms=    9 NActive=    9 NUniq=    9 SFac= 1.00D+00 NAtFMM=   60 NAOKFM=F Big=F
 Integral buffers will be    131072 words long.
 Raffenetti 2 integral format.
 Two-electron integral symmetry is turned on.
 Nuclear repulsion after empirical dispersion term =      256.9398191216 Hartrees.
 One-electron integrals computed using PRISM.
   1 Symmetry operations used in ECPInt.
 ECPInt:  NShTT=    3655 NPrTT=   11788 LenC2=    3522 LenP2D=    9054.
 LDataN:  DoStor=T MaxTD1= 6 Len=  172
 NBasis=   229 RedAO= T EigKep=  1.82D-04  NBF=   229
 NBsUse=   229 1.00D-06 EigRej= -1.00D+00 NBFU=   229
 ExpMin= 9.52D-02 ExpMax= 2.70D+04 ExpMxC= 9.22D+02 IAcc=3 IRadAn=         5 AccDes= 0.00D+00
 Harris functional with IExCor= 4639 and IRadAn=       5 diagonalized for initial guess.
 HarFok:  IExCor= 4639 AccDes= 0.00D+00 IRadAn=         5 IDoV= 1 UseB2=F ITyADJ=14
 ICtDFT=  3500011 ScaDFX=  1.000000  1.000000  1.000000  1.000000
 FoFCou: FMM=F IPFlag=           0 FMFlag=      100000 FMFlg1=           0
         NFxFlg=           0 DoJE=T BraDBF=F KetDBF=T FulRan=T
         wScrn=  0.000000 ICntrl=       500 IOpCl=  0 I1Cent=   200000004 NGrid=           0
         NMat0=    1 NMatS0=      1 NMatT0=    0 NMatD0=    1 NMtDS0=    0 NMtDT0=    0
 Petite list used in FoFCou.
 Initial guess <Sx>= 0.0000 <Sy>= 0.0000 <Sz>= 0.0000 <S**2>= 0.0000 S= 0.0000
 Requested convergence on RMS density matrix=1.00D-08 within 128 cycles.
 Requested convergence on MAX density matrix=1.00D-06.
 Requested convergence on             energy=1.00D-06.
 No special actions if energy rises.
 Integral accuracy reduced to 1.0D-05 until final iterations.
 EnCoef did     3 forward-backward iterations
 Initial convergence to 1.0D-05 achieved.  Increase integral accuracy.
 SCF Done:  E(UwB97XD) =  -371.404142665     A.U. after   29 cycles
            NFock= 29  Conv=0.41D-08     -V/T= 2.0036
 <Sx>= 0.0000 <Sy>= 0.0000 <Sz>= 0.0000 <S**2>=-0.0000 S=-0.0000
 <L.S>=  0.00000000000    
 Annihilation of the first spin contaminant:
 S**2 before annihilation    -0.0000,   after     0.0000

 **********************************************************************

            Population analysis using the SCF density.

 **********************************************************************

 Orbital symmetries:
 Alpha Orbitals:
       Occupied  (A) (A) (A) (A) (A) (A) (A) (A) (A) (A) (A) (A)
                 (A) (A) (A) (A) (A) (A) (A) (A) (A) (A) (A) (A)
                 (A)
       Virtual   (A) (A) (A) (A) (A) (A) (A) (A) (A) (A) (A) (A)
                 (A) (A) (A) (A) (A) (A) (A) (A) (A) (A) (A) (A)
                 (A) (A) (A) (A) (A) (A) (A) (A) (A) (A) (A) (A)
                 (A) (A) (A) (A) (A) (A) (A) (A) (A) (A) (A) (A)
                 (A) (A) (A) (A) (A) (A) (A) (A) (A) (A) (A) (A)
                 (A) (A) (A) (A) (A) (A) (A) (A) (A) (A) (A) (A)
                 (A) (A) (A) (A) (A) (A) (A) (A) (A) (A) (A) (A)
                 (A) (A) (A) (A) (A) (A) (A) (A) (A) (A) (A) (A)
                 (A) (A) (A) (A) (A) (A) (A) (A) (A) (A) (A) (A)
                 (A) (A) (A) (A) (A) (A) (A) (A) (A) (A) (A) (A)
                 (A) (A) (A) (A) (A) (A) (A) (A) (A) (A) (A) (A)
                 (A) (A) (A) (A) (A) (A) (A) (A) (A) (A) (A) (A)
                 (A) (A) (A) (A) (A) (A) (A) (A) (A) (A) (A) (A)
                 (A) (A) (A) (A) (A) (A) (A) (A) (A) (A) (A) (A)
                 (A) (A) (A) (A) (A) (A) (A) (A) (A) (A) (A) (A)
                 (A) (A) (A) (A) (A) (A) (A) (A) (A) (A) (A) (A)
                 (A) (A) (A) (A) (A) (A) (A) (A) (A) (A) (A) (A)
 Beta  Orbitals:
       Occupied  (A) (A) (A) (A) (A) (A) (A) (A) (A) (A) (A) (A)
                 (A) (A) (A) (A) (A) (A) (A) (A) (A) (A) (A) (A)
                 (A)
       Virtual   (A) (A) (A) (A) (A) (A) (A) (A) (A) (A) (A) (A)
                 (A) (A) (A) (A) (A) (A) (A) (A) (A) (A) (A) (A)
                 (A) (A) (A) (A) (A) (A) (A) (A) (A) (A) (A) (A)
                 (A) (A) (A) (A) (A) (A) (A) (A) (A) (A) (A) (A)
                 (A) (A) (A) (A) (A) (A) (A) (A) (A) (A) (A) (A)
                 (A) (A) (A) (A) (A) (A) (A) (A) (A) (A) (A) (A)
                 (A) (A) (A) (A) (A) (A) (A) (A) (A) (A) (A) (A)
                 (A) (A) (A) (A) (A) (A) (A) (A) (A) (A) (A) (A)
                 (A) (A) (A) (A) (A) (A) (A) (A) (A) (A) (A) (A)
                 (A) (A) (A) (A) (A) (A) (A) (A) (A) (A) (A) (A)
                 (A) (A) (A) (A) (A) (A) (A) (A) (A) (A) (A) (A)
                 (A) (A) (A) (A) (A) (A) (A) (A) (A) (A) (A) (A)
                 (A) (A) (A) (A) (A) (A) (A) (A) (A) (A) (A) (A)
                 (A) (A) (A) (A) (A) (A) (A) (A) (A) (A) (A) (A)
                 (A) (A) (A) (A) (A) (A) (A) (A) (A) (A) (A) (A)
                 (A) (A) (A) (A) (A) (A) (A) (A) (A) (A) (A) (A)
                 (A) (A) (A) (A) (A) (A) (A) (A) (A) (A) (A) (A)
 The electronic state is 1-A.
 Alpha  occ. eigenvalues --  -19.29233 -14.64209 -14.60369 -14.54566 -14.44284
 Alpha  occ. eigenvalues --  -10.42139 -10.34473  -1.29157  -1.25968  -1.07739
 Alpha  occ. eigenvalues --   -0.96993  -0.93092  -0.74120  -0.66923  -0.64865
 Alpha  occ. eigenvalues --   -0.63853  -0.62197  -0.59794  -0.57568  -0.56342
 Alpha  occ. eigenvalues --   -0.49081  -0.45962  -0.39329  -0.33343  -0.24812
 Alpha virt. eigenvalues --   -0.09258  -0.05121   0.03573   0.10342   0.14058
 Alpha virt. eigenvalues --    0.15078   0.18126   0.19217   0.24146   0.27213
 Alpha virt. eigenvalues --    0.28817   0.30094   0.32121   0.32960   0.33822
 Alpha virt. eigenvalues --    0.35701   0.38272   0.39965   0.41585   0.44644
 Alpha virt. eigenvalues --    0.45649   0.46492   0.48295   0.49266   0.51082
 Alpha virt. eigenvalues --    0.53456   0.54273   0.54919   0.55476   0.57381
 Alpha virt. eigenvalues --    0.58263   0.60161   0.62063   0.64539   0.65728
 Alpha virt. eigenvalues --    0.68200   0.70663   0.72929   0.78152   0.79564
 Alpha virt. eigenvalues --    0.81004   0.82698   0.84994   0.89930   0.91825
 Alpha virt. eigenvalues --    0.97033   1.00432   1.02397   1.05507   1.11205
 Alpha virt. eigenvalues --    1.11950   1.14706   1.19854   1.26669   1.29236
 Alpha virt. eigenvalues --    1.30062   1.31617   1.33751   1.39377   1.43414
 Alpha virt. eigenvalues --    1.44727   1.46953   1.50434   1.50954   1.53323
 Alpha virt. eigenvalues --    1.55687   1.58366   1.61715   1.66080   1.66639
 Alpha virt. eigenvalues --    1.69629   1.72428   1.76524   1.78066   1.81444
 Alpha virt. eigenvalues --    1.83480   1.89305   1.90114   1.91140   1.97093
 Alpha virt. eigenvalues --    2.00970   2.05186   2.07242   2.11901   2.12998
 Alpha virt. eigenvalues --    2.14990   2.19217   2.24221   2.24675   2.26138
 Alpha virt. eigenvalues --    2.27953   2.35028   2.36974   2.39435   2.43366
 Alpha virt. eigenvalues --    2.46990   2.48636   2.56034   2.61235   2.64270
 Alpha virt. eigenvalues --    2.65229   2.71035   2.75354   2.82215   2.86426
 Alpha virt. eigenvalues --    2.90004   2.93419   2.96527   2.97514   3.00785
 Alpha virt. eigenvalues --    3.04082   3.07567   3.11301   3.14188   3.15696
 Alpha virt. eigenvalues --    3.21145   3.22651   3.25956   3.28507   3.37792
 Alpha virt. eigenvalues --    3.38226   3.42320   3.46528   3.50100   3.55620
 Alpha virt. eigenvalues --    3.57938   3.62305   3.64454   3.69960   3.73896
 Alpha virt. eigenvalues --    3.74999   3.78202   3.78460   3.84215   3.86168
 Alpha virt. eigenvalues --    3.89471   3.98021   4.05242   4.05887   4.07311
 Alpha virt. eigenvalues --    4.13499   4.19784   4.21518   4.29194   4.30912
 Alpha virt. eigenvalues --    4.37125   4.38219   4.42121   4.44770   4.49629
 Alpha virt. eigenvalues --    4.50626   4.56558   4.60041   4.63542   4.67256
 Alpha virt. eigenvalues --    4.71594   4.73258   4.75531   4.78093   4.79889
 Alpha virt. eigenvalues --    4.84986   4.88459   4.92494   4.93120   4.96401
 Alpha virt. eigenvalues --    5.04476   5.05197   5.08923   5.11191   5.12793
 Alpha virt. eigenvalues --    5.13216   5.20294   5.24551   5.26155   5.26223
 Alpha virt. eigenvalues --    5.37702   5.40228   5.46316   5.57925   5.59119
 Alpha virt. eigenvalues --    5.71457   5.79287   5.81560   5.89669   6.01557
 Alpha virt. eigenvalues --    6.36152   6.36838   6.39876   6.54554   6.59811
 Alpha virt. eigenvalues --    6.62599   6.78238   6.91483   7.03759   7.17581
 Alpha virt. eigenvalues --    7.34822   7.42809  22.90792  23.33865  31.73003
 Alpha virt. eigenvalues --   32.08707  32.58430  32.97156  44.17566
  Beta  occ. eigenvalues --  -19.29233 -14.64209 -14.60369 -14.54566 -14.44284
  Beta  occ. eigenvalues --  -10.42139 -10.34473  -1.29157  -1.25968  -1.07739
  Beta  occ. eigenvalues --   -0.96993  -0.93092  -0.74120  -0.66923  -0.64865
  Beta  occ. eigenvalues --   -0.63853  -0.62197  -0.59794  -0.57568  -0.56342
  Beta  occ. eigenvalues --   -0.49081  -0.45962  -0.39329  -0.33343  -0.24812
  Beta virt. eigenvalues --   -0.09258  -0.05121   0.03573   0.10342   0.14058
  Beta virt. eigenvalues --    0.15078   0.18126   0.19217   0.24146   0.27213
  Beta virt. eigenvalues --    0.28817   0.30094   0.32121   0.32960   0.33822
  Beta virt. eigenvalues --    0.35701   0.38272   0.39965   0.41585   0.44644
  Beta virt. eigenvalues --    0.45649   0.46492   0.48295   0.49266   0.51082
  Beta virt. eigenvalues --    0.53456   0.54273   0.54919   0.55476   0.57381
  Beta virt. eigenvalues --    0.58263   0.60161   0.62063   0.64539   0.65728
  Beta virt. eigenvalues --    0.68200   0.70663   0.72929   0.78152   0.79564
  Beta virt. eigenvalues --    0.81004   0.82698   0.84994   0.89930   0.91825
  Beta virt. eigenvalues --    0.97033   1.00432   1.02397   1.05507   1.11205
  Beta virt. eigenvalues --    1.11950   1.14706   1.19854   1.26669   1.29236
  Beta virt. eigenvalues --    1.30062   1.31617   1.33751   1.39377   1.43414
  Beta virt. eigenvalues --    1.44727   1.46953   1.50434   1.50954   1.53323
  Beta virt. eigenvalues --    1.55687   1.58366   1.61715   1.66080   1.66639
  Beta virt. eigenvalues --    1.69629   1.72428   1.76524   1.78066   1.81444
  Beta virt. eigenvalues --    1.83480   1.89305   1.90114   1.91140   1.97093
  Beta virt. eigenvalues --    2.00970   2.05186   2.07242   2.11901   2.12998
  Beta virt. eigenvalues --    2.14990   2.19217   2.24221   2.24675   2.26138
  Beta virt. eigenvalues --    2.27953   2.35028   2.36974   2.39435   2.43366
  Beta virt. eigenvalues --    2.46990   2.48636   2.56034   2.61235   2.64270
  Beta virt. eigenvalues --    2.65229   2.71035   2.75354   2.82215   2.86426
  Beta virt. eigenvalues --    2.90004   2.93419   2.96527   2.97514   3.00785
  Beta virt. eigenvalues --    3.04082   3.07567   3.11301   3.14188   3.15696
  Beta virt. eigenvalues --    3.21145   3.22651   3.25956   3.28507   3.37792
  Beta virt. eigenvalues --    3.38226   3.42320   3.46528   3.50100   3.55620
  Beta virt. eigenvalues --    3.57938   3.62305   3.64454   3.69960   3.73896
  Beta virt. eigenvalues --    3.74999   3.78202   3.78460   3.84215   3.86168
  Beta virt. eigenvalues --    3.89471   3.98021   4.05242   4.05887   4.07311
  Beta virt. eigenvalues --    4.13499   4.19784   4.21518   4.29194   4.30912
  Beta virt. eigenvalues --    4.37125   4.38219   4.42121   4.44770   4.49629
  Beta virt. eigenvalues --    4.50626   4.56558   4.60041   4.63542   4.67256
  Beta virt. eigenvalues --    4.71594   4.73258   4.75531   4.78093   4.79889
  Beta virt. eigenvalues --    4.84986   4.88459   4.92494   4.93120   4.96401
  Beta virt. eigenvalues --    5.04476   5.05197   5.08923   5.11191   5.12793
  Beta virt. eigenvalues --    5.13216   5.20294   5.24551   5.26155   5.26223
  Beta virt. eigenvalues --    5.37702   5.40228   5.46316   5.57925   5.59119
  Beta virt. eigenvalues --    5.71457   5.79287   5.81560   5.89669   6.01557
  Beta virt. eigenvalues --    6.36152   6.36838   6.39876   6.54554   6.59811
  Beta virt. eigenvalues --    6.62599   6.78238   6.91483   7.03759   7.17581
  Beta virt. eigenvalues --    7.34822   7.42809  22.90792  23.33865  31.73003
  Beta virt. eigenvalues --   32.08707  32.58430  32.97156  44.17566
          Condensed to atoms (all electrons):
               1          2          3          4          5          6
     1  N    6.530952   0.679253  -0.081900  -0.001944  -0.001005   0.003011
     2  C    0.679253   4.774438   0.321850  -0.049840   0.004723  -0.079931
     3  N   -0.081900   0.321850   6.270955   0.406613  -0.000117   0.000924
     4  N   -0.001944  -0.049840   0.406613   6.681581   0.000002   0.000522
     5  O   -0.001005   0.004723  -0.000117   0.000002   8.121688   0.238176
     6  N    0.003011  -0.079931   0.000924   0.000522   0.238176   6.119482
     7  C   -0.097515   0.288041  -0.053512   0.005104  -0.069683   0.564967
     8  H    0.345773  -0.060127  -0.010749   0.001200   0.000016   0.000073
     9  H   -0.001708  -0.130753   0.020116   0.004025   0.005531  -0.029300
               7          8          9
     1  N   -0.097515   0.345773  -0.001708
     2  C    0.288041  -0.060127  -0.130753
     3  N   -0.053512  -0.010749   0.020116
     4  N    0.005104   0.001200   0.004025
     5  O   -0.069683   0.000016   0.005531
     6  N    0.564967   0.000073  -0.029300
     7  C    5.094558   0.015344   0.427280
     8  H    0.015344   0.488412  -0.000302
     9  H    0.427280  -0.000302   0.589610
          Atomic-Atomic Spin Densities.
               1          2          3          4          5          6
     1  N   -0.000000   0.000000   0.000000  -0.000000   0.000000  -0.000000
     2  C    0.000000  -0.000000  -0.000000   0.000000   0.000000  -0.000000
     3  N    0.000000  -0.000000  -0.000000   0.000000  -0.000000   0.000000
     4  N   -0.000000   0.000000   0.000000  -0.000000   0.000000  -0.000000
     5  O    0.000000   0.000000  -0.000000   0.000000   0.000000  -0.000000
     6  N   -0.000000  -0.000000   0.000000  -0.000000  -0.000000   0.000000
     7  C    0.000000   0.000000  -0.000000  -0.000000  -0.000000   0.000000
     8  H   -0.000000  -0.000000   0.000000  -0.000000  -0.000000   0.000000
     9  H    0.000000  -0.000000  -0.000000   0.000000   0.000000  -0.000000
               7          8          9
     1  N    0.000000  -0.000000   0.000000
     2  C    0.000000  -0.000000  -0.000000
     3  N   -0.000000   0.000000  -0.000000
     4  N   -0.000000  -0.000000   0.000000
     5  O   -0.000000  -0.000000   0.000000
     6  N    0.000000   0.000000  -0.000000
     7  C    0.000000   0.000000  -0.000000
     8  H    0.000000   0.000000   0.000000
     9  H   -0.000000   0.000000   0.000000
 Mulliken charges and spin densities:
               1          2
     1  N   -0.374917  -0.000000
     2  C    0.252345  -0.000000
     3  N    0.125819  -0.000000
     4  N   -0.047264  -0.000000
     5  O   -0.299333   0.000000
     6  N    0.182075   0.000000
     7  C   -0.174584   0.000000
     8  H    0.220358   0.000000
     9  H    0.115501   0.000000
 Sum of Mulliken charges =  -0.00000  -0.00000
 Mulliken charges and spin densities with hydrogens summed into heavy atoms:
               1          2
     1  N   -0.154559  -0.000000
     2  C    0.252345  -0.000000
     3  N    0.125819  -0.000000
     4  N   -0.047264  -0.000000
     5  O   -0.299333   0.000000
     6  N    0.182075   0.000000
     7  C   -0.059083   0.000000
 Electronic spatial extent (au):  <R**2>=            829.8886
 Charge=             -0.0000 electrons
 Dipole moment (field-independent basis, Debye):
    X=             -4.9267    Y=             -1.6761    Z=              0.4552  Tot=              5.2239
 Quadrupole moment (field-independent basis, Debye-Ang):
   XX=            -44.6898   YY=            -38.2415   ZZ=            -39.2348
   XY=             -2.8376   XZ=              0.2416   YZ=              0.0879
 Traceless Quadrupole moment (field-independent basis, Debye-Ang):
   XX=             -3.9678   YY=              2.4805   ZZ=              1.4872
   XY=             -2.8376   XZ=              0.2416   YZ=              0.0879
 Octapole moment (field-independent basis, Debye-Ang**2):
  XXX=            -24.5477  YYY=             -4.9215  ZZZ=             -0.5724  XYY=             -4.6151
  XXY=              8.4252  XXZ=              1.5678  XZZ=              0.9519  YZZ=             -1.0670
  YYZ=              0.6939  XYZ=              0.7168
 Hexadecapole moment (field-independent basis, Debye-Ang**3):
 XXXX=           -914.3043 YYYY=           -170.1274 ZZZZ=            -40.1087 XXXY=            -13.6925
 XXXZ=             -1.3292 YYYX=            -15.3639 YYYZ=             -0.2812 ZZZX=             -0.5721
 ZZZY=              0.8216 XXYY=           -150.7472 XXZZ=           -140.0110 YYZZ=            -37.6956
 XXYZ=              2.2771 YYXZ=             -0.6513 ZZXY=             -0.2043
 N-N= 2.569398191216D+02 E-N=-1.382527457799D+03  KE= 3.700872282053D+02
                          Isotropic Fermi Contact Couplings
        Atom                 a.u.       MegaHertz       Gauss      10(-4) cm-1
     1  N(14)             -0.00000      -0.00000      -0.00000      -0.00000
     2  C(13)              0.00000       0.00000       0.00000       0.00000
     3  N(14)             -0.00000      -0.00000      -0.00000      -0.00000
     4  N(14)             -0.00000      -0.00000      -0.00000      -0.00000
     5  O(17)              0.00000      -0.00000      -0.00000      -0.00000
     6  N(14)              0.00000       0.00000       0.00000       0.00000
     7  C(13)              0.00000       0.00000       0.00000       0.00000
     8  H(1)               0.00000       0.00000       0.00000       0.00000
     9  H(1)               0.00000       0.00000       0.00000       0.00000
 --------------------------------------------------------
       Center         ----  Spin Dipole Couplings  ----
                      3XX-RR        3YY-RR        3ZZ-RR
 --------------------------------------------------------
     1   Atom        0.000000      0.000000     -0.000000
     2   Atom        0.000000      0.000000     -0.000000
     3   Atom        0.000000      0.000000     -0.000000
     4   Atom        0.000000      0.000000     -0.000000
     5   Atom       -0.000000      0.000000     -0.000000
     6   Atom       -0.000000      0.000000     -0.000000
     7   Atom        0.000000     -0.000000      0.000000
     8   Atom       -0.000000      0.000000      0.000000
     9   Atom       -0.000000      0.000000     -0.000000
 --------------------------------------------------------
                        XY            XZ            YZ
 --------------------------------------------------------
     1   Atom       -0.000000     -0.000000      0.000000
     2   Atom       -0.000000     -0.000000     -0.000000
     3   Atom       -0.000000      0.000000     -0.000000
     4   Atom       -0.000000      0.000000      0.000000
     5   Atom       -0.000000      0.000000     -0.000000
     6   Atom       -0.000000      0.000000     -0.000000
     7   Atom        0.000000     -0.000000     -0.000000
     8   Atom        0.000000     -0.000000     -0.000000
     9   Atom        0.000000     -0.000000     -0.000000
 --------------------------------------------------------


 ---------------------------------------------------------------------------------
              Anisotropic Spin Dipole Couplings in Principal Axis System
 ---------------------------------------------------------------------------------

       Atom             a.u.   MegaHertz   Gauss  10(-4) cm-1        Axes

              Baa    -0.0000    -0.000    -0.000    -0.000  0.0296 -0.0026  0.9996
     1 N(14)  Bbb     0.0000     0.000     0.000     0.000  0.3466  0.9380 -0.0078
              Bcc     0.0000     0.000     0.000     0.000  0.9375 -0.3467 -0.0286
 
              Baa    -0.0000    -0.000    -0.000    -0.000  0.3136  0.4118  0.8557
     2 C(13)  Bbb     0.0000     0.000     0.000     0.000  0.2692  0.8256 -0.4959
              Bcc     0.0000     0.000     0.000     0.000  0.9106 -0.3859 -0.1480
 
              Baa    -0.0000    -0.000    -0.000    -0.000 -0.0256  0.0145  0.9996
     3 N(14)  Bbb     0.0000     0.000     0.000     0.000  0.9511  0.3081  0.0199
              Bcc     0.0000     0.000     0.000     0.000 -0.3077  0.9512 -0.0216
 
              Baa    -0.0000    -0.000    -0.000    -0.000 -0.0887 -0.0386  0.9953
     4 N(14)  Bbb     0.0000     0.000     0.000     0.000  0.0534  0.9976  0.0435
              Bcc     0.0000     0.000     0.000     0.000  0.9946 -0.0570  0.0864
 
              Baa    -0.0000     0.000     0.000     0.000 -0.0726  0.1463  0.9866
     5 O(17)  Bbb    -0.0000     0.000     0.000     0.000  0.9965  0.0512  0.0657
              Bcc     0.0000    -0.000    -0.000    -0.000 -0.0409  0.9879 -0.1495
 
              Baa    -0.0000    -0.000    -0.000    -0.000  0.1599  0.3052  0.9388
     6 N(14)  Bbb    -0.0000    -0.000    -0.000    -0.000  0.9826  0.0418 -0.1810
              Bcc     0.0000     0.000     0.000     0.000 -0.0944  0.9514 -0.2932
 
              Baa    -0.0000    -0.000    -0.000    -0.000 -0.4952  0.8330 -0.2469
     7 C(13)  Bbb    -0.0000    -0.000    -0.000    -0.000  0.5842  0.5296  0.6150
              Bcc     0.0000     0.000     0.000     0.000 -0.6430 -0.1603  0.7489
 
              Baa    -0.0000    -0.000    -0.000    -0.000  0.8784 -0.4779  0.0006
     8 H(1)   Bbb     0.0000     0.000     0.000     0.000  0.0203  0.0385  0.9991
              Bcc     0.0000     0.000     0.000     0.000  0.4775  0.8776 -0.0435
 
              Baa    -0.0000    -0.000    -0.000    -0.000  0.8240 -0.3508  0.4449
     9 H(1)   Bbb    -0.0000    -0.000    -0.000    -0.000 -0.3379  0.3261  0.8829
              Bcc     0.0000     0.000     0.000     0.000  0.4548  0.8778 -0.1502
 

 ---------------------------------------------------------------------------------

 1\1\GINC-NODE305\SP\UwB97XD\def2TZVP\C2H2N4O1\MHARRIS\22-Jun-2021\0\\#
  UwB97XD/Def2TZVP\\something title\\0,1\N,0,-0.5095,-0.159816,-1.28119
 8\C,0,-0.440585,-0.866278,-0.205781\N,0,-1.541847,-1.136509,0.501078\N
 ,0,-2.632688,-1.316221,0.758638\O,0,3.057821,-1.395541,-0.2515\N,0,1.8
 69624,-1.305759,-0.294032\C,0,0.821842,-1.247784,0.408663\H,0,-1.42624
 5,0.180281,-1.556081\H,0,0.777651,-1.564339,1.442532\\Version=ES64L-G1
 6RevA.03\State=1-A\HF=-371.4041427\S2=0.\S2-1=0.\S2A=0.\RMSD=4.129e-09
 \Dipole=-1.8588833,-0.0683903,0.873988\Quadrupole=-2.574381,1.4855259,
 1.0888551,-0.7234933,2.3348864,-0.4065914\PG=C01 [X(C2H2N4O1)]\\@


 BOOKS ARE LIGHTHOUSES ERECTED IN THE GREAT SEA OF TIME.
     -- E.P.WHIPPLE
 Job cpu time:       0 days  0 hours 25 minutes 56.2 seconds.
 Elapsed time:       0 days  0 hours  6 minutes 29.8 seconds.
 File lengths (MBytes):  RWF=     54 Int=      0 D2E=      0 Chk=      5 Scr=      1
 Normal termination of Gaussian 16 at Tue Jun 22 17:02:40 2021.
