 Entering Gaussian System, Link 0=/software/kemi/g16/avx2/g16/g16
 Initial command:
 /software/kemi/g16/avx2/g16/l1.exe "/scratch/23935644/Gau-15527.inp" -scrdir="/scratch/23935644/"
 Entering Link 1 = /software/kemi/g16/avx2/g16/l1.exe PID=     15528.
  
 Copyright (c) 1988,1990,1992,1993,1995,1998,2003,2009,2016,
            Gaussian, Inc.  All Rights Reserved.
  
 This is part of the Gaussian(R) 16 program.  It is based on
 the Gaussian(R) 09 system (copyright 2009, Gaussian, Inc.),
 the Gaussian(R) 03 system (copyright 2003, Gaussian, Inc.),
 the Gaussian(R) 98 system (copyright 1998, Gaussian, Inc.),
 the Gaussian(R) 94 system (copyright 1995, Gaussian, Inc.),
 the Gaussian 92(TM) system (copyright 1992, Gaussian, Inc.),
 the Gaussian 90(TM) system (copyright 1990, Gaussian, Inc.),
 the Gaussian 88(TM) system (copyright 1988, Gaussian, Inc.),
 the Gaussian 86(TM) system (copyright 1986, Carnegie Mellon
 University), and the Gaussian 82(TM) system (copyright 1983,
 Carnegie Mellon University). Gaussian is a federally registered
 trademark of Gaussian, Inc.
  
 This software contains proprietary and confidential information,
 including trade secrets, belonging to Gaussian, Inc.
  
 This software is provided under written license and may be
 used, copied, transmitted, or stored only in accord with that
 written license.
  
 The following legend is applicable only to US Government
 contracts under FAR:
  
                    RESTRICTED RIGHTS LEGEND
  
 Use, reproduction and disclosure by the US Government is
 subject to restrictions as set forth in subparagraphs (a)
 and (c) of the Commercial Computer Software - Restricted
 Rights clause in FAR 52.227-19.
  
 Gaussian, Inc.
 340 Quinnipiac St., Bldg. 40, Wallingford CT 06492
  
  
 ---------------------------------------------------------------
 Warning -- This program may not be used in any manner that
 competes with the business of Gaussian, Inc. or will provide
 assistance to any competitor of Gaussian, Inc.  The licensee
 of this program is prohibited from giving any competitor of
 Gaussian, Inc. access to this program.  By using this program,
 the user acknowledges that Gaussian, Inc. is engaged in the
 business of creating and licensing software in the field of
 computational chemistry and represents and warrants to the
 licensee that it is not a competitor of Gaussian, Inc. and that
 it will not use this program in any manner prohibited above.
 ---------------------------------------------------------------
  

 Cite this work as:
 Gaussian 16, Revision A.03,
 M. J. Frisch, G. W. Trucks, H. B. Schlegel, G. E. Scuseria, 
 M. A. Robb, J. R. Cheeseman, G. Scalmani, V. Barone, 
 G. A. Petersson, H. Nakatsuji, X. Li, M. Caricato, A. V. Marenich, 
 J. Bloino, B. G. Janesko, R. Gomperts, B. Mennucci, H. P. Hratchian, 
 J. V. Ortiz, A. F. Izmaylov, J. L. Sonnenberg, D. Williams-Young, 
 F. Ding, F. Lipparini, F. Egidi, J. Goings, B. Peng, A. Petrone, 
 T. Henderson, D. Ranasinghe, V. G. Zakrzewski, J. Gao, N. Rega, 
 G. Zheng, W. Liang, M. Hada, M. Ehara, K. Toyota, R. Fukuda, 
 J. Hasegawa, M. Ishida, T. Nakajima, Y. Honda, O. Kitao, H. Nakai, 
 T. Vreven, K. Throssell, J. A. Montgomery, Jr., J. E. Peralta, 
 F. Ogliaro, M. J. Bearpark, J. J. Heyd, E. N. Brothers, K. N. Kudin, 
 V. N. Staroverov, T. A. Keith, R. Kobayashi, J. Normand, 
 K. Raghavachari, A. P. Rendell, J. C. Burant, S. S. Iyengar, 
 J. Tomasi, M. Cossi, J. M. Millam, M. Klene, C. Adamo, R. Cammi, 
 J. W. Ochterski, R. L. Martin, K. Morokuma, O. Farkas, 
 J. B. Foresman, and D. J. Fox, Gaussian, Inc., Wallingford CT, 2016.
 
 ******************************************
 Gaussian 16:  ES64L-G16RevA.03 25-Dec-2016
                22-Jun-2021 
 ******************************************
 %nprocshared=4
 Will use up to    4 processors via shared memory.
 %mem=8GB
 ------------------
 # UwB97XD/Def2TZVP
 ------------------
 1/38=1,172=1/1;
 2/12=2,17=6,18=5,40=1/2;
 3/5=44,7=101,11=2,25=1,30=1,74=-58,116=2/1,2,3;
 4//1;
 5/5=2,38=5/2;
 6/7=2,8=2,9=2,10=2,28=1/1;
 99/5=1,9=1/99;
 ---------------
 something title
 ---------------
 Symbolic Z-matrix:
 Charge =  0 Multiplicity = 1
 N                    -0.5305   -0.13909  -1.26938 
 C                    -0.43332  -0.83351  -0.18934 
 N                    -1.53531  -1.14427   0.49765 
 N                    -2.63183  -1.31948   0.75324 
 O                     3.04969  -1.44818  -0.15885 
 N                     1.86421  -1.2805   -0.36083 
 C                     0.83118  -1.23208   0.38777 
 H                    -1.45635   0.15215  -1.56141 
 H                     0.81831  -1.567     1.42346 
 
                          Input orientation:                          
 ---------------------------------------------------------------------
 Center     Atomic      Atomic             Coordinates (Angstroms)
 Number     Number       Type             X           Y           Z
 ---------------------------------------------------------------------
      1          7           0       -0.530495   -0.139088   -1.269378
      2          6           0       -0.433318   -0.833514   -0.189336
      3          7           0       -1.535308   -1.144271    0.497654
      4          7           0       -2.631832   -1.319478    0.753242
      5          8           0        3.049686   -1.448183   -0.158853
      6          7           0        1.864205   -1.280503   -0.360831
      7          6           0        0.831177   -1.232084    0.387772
      8          1           0       -1.456346    0.152153   -1.561414
      9          1           0        0.818306   -1.566996    1.423464
 ---------------------------------------------------------------------
                    Distance matrix (angstroms):
                    1          2          3          4          5
     1  N    0.000000
     2  C    1.287696   0.000000
     3  N    2.267696   1.335255   0.000000
     4  N    3.146415   2.440917   1.139468   0.000000
     5  O    3.970477   3.536957   4.641717   5.755704   0.000000
     6  N    2.804082   2.346875   3.508881   4.632173   1.214198
     7  C    2.407268   1.445980   2.370662   3.483337   2.295056
     8  H    1.013561   1.975025   2.434484   2.984141   4.983230
     9  H    3.333104   2.169258   2.564239   3.523339   2.738047
                    6          7          8          9
     6  N    0.000000
     7  C    1.276674   0.000000
     8  H    3.810507   3.308806   0.000000
     9  H    2.087987   1.088572   4.127834   0.000000
 Stoichiometry    C2H2N4O
 Framework group  C1[X(C2H2N4O)]
 Deg. of freedom    21
 Full point group                 C1      NOp   1
 Largest Abelian subgroup         C1      NOp   1
 Largest concise Abelian subgroup C1      NOp   1
                         Standard orientation:                         
 ---------------------------------------------------------------------
 Center     Atomic      Atomic             Coordinates (Angstroms)
 Number     Number       Type             X           Y           Z
 ---------------------------------------------------------------------
      1          7           0       -0.593676    1.542110    0.045470
      2          6           0       -0.557577    0.254921    0.046575
      3          7           0       -1.698632   -0.437992    0.018771
      4          7           0       -2.799569   -0.695186   -0.123274
      5          8           0        2.939583   -0.267211   -0.038969
      6          7           0        1.772313    0.049395   -0.146290
      7          6           0        0.666349   -0.505372    0.168315
      8          1           0       -1.503347    1.988639    0.025029
      9          1           0        0.570995   -1.556545    0.434644
 ---------------------------------------------------------------------
 Rotational constants (GHZ):           9.1428641           1.4434673           1.2535626
 Standard basis: def2TZVP (5D, 7F)
 There are   264 symmetry adapted cartesian basis functions of A   symmetry.
 There are   229 symmetry adapted basis functions of A   symmetry.
   229 basis functions,   373 primitive gaussians,   264 cartesian basis functions
    25 alpha electrons       25 beta electrons
       nuclear repulsion energy       256.6124173652 Hartrees.
 NAtoms=    9 NActive=    9 NUniq=    9 SFac= 1.00D+00 NAtFMM=   60 NAOKFM=F Big=F
 Integral buffers will be    131072 words long.
 Raffenetti 2 integral format.
 Two-electron integral symmetry is turned on.
 Nuclear repulsion after empirical dispersion term =      256.6098986424 Hartrees.
 One-electron integrals computed using PRISM.
   1 Symmetry operations used in ECPInt.
 ECPInt:  NShTT=    3655 NPrTT=   11788 LenC2=    3521 LenP2D=    9052.
 LDataN:  DoStor=T MaxTD1= 6 Len=  172
 NBasis=   229 RedAO= T EigKep=  1.88D-04  NBF=   229
 NBsUse=   229 1.00D-06 EigRej= -1.00D+00 NBFU=   229
 ExpMin= 9.52D-02 ExpMax= 2.70D+04 ExpMxC= 9.22D+02 IAcc=3 IRadAn=         5 AccDes= 0.00D+00
 Harris functional with IExCor= 4639 and IRadAn=       5 diagonalized for initial guess.
 HarFok:  IExCor= 4639 AccDes= 0.00D+00 IRadAn=         5 IDoV= 1 UseB2=F ITyADJ=14
 ICtDFT=  3500011 ScaDFX=  1.000000  1.000000  1.000000  1.000000
 FoFCou: FMM=F IPFlag=           0 FMFlag=      100000 FMFlg1=           0
         NFxFlg=           0 DoJE=T BraDBF=F KetDBF=T FulRan=T
         wScrn=  0.000000 ICntrl=       500 IOpCl=  0 I1Cent=   200000004 NGrid=           0
         NMat0=    1 NMatS0=      1 NMatT0=    0 NMatD0=    1 NMtDS0=    0 NMtDT0=    0
 Petite list used in FoFCou.
 Initial guess <Sx>= 0.0000 <Sy>= 0.0000 <Sz>= 0.0000 <S**2>=-0.0000 S=-0.0000
 Requested convergence on RMS density matrix=1.00D-08 within 128 cycles.
 Requested convergence on MAX density matrix=1.00D-06.
 Requested convergence on             energy=1.00D-06.
 No special actions if energy rises.
 Integral accuracy reduced to 1.0D-05 until final iterations.
 EnCoef did     2 forward-backward iterations
 Initial convergence to 1.0D-05 achieved.  Increase integral accuracy.
 SCF Done:  E(UwB97XD) =  -371.412697541     A.U. after   29 cycles
            NFock= 29  Conv=0.82D-08     -V/T= 2.0038
 <Sx>= 0.0000 <Sy>= 0.0000 <Sz>= 0.0000 <S**2>=-0.0000 S=-0.0000
 <L.S>=  0.00000000000    
 Annihilation of the first spin contaminant:
 S**2 before annihilation    -0.0000,   after    -0.0000

 **********************************************************************

            Population analysis using the SCF density.

 **********************************************************************

 Orbital symmetries:
 Alpha Orbitals:
       Occupied  (A) (A) (A) (A) (A) (A) (A) (A) (A) (A) (A) (A)
                 (A) (A) (A) (A) (A) (A) (A) (A) (A) (A) (A) (A)
                 (A)
       Virtual   (A) (A) (A) (A) (A) (A) (A) (A) (A) (A) (A) (A)
                 (A) (A) (A) (A) (A) (A) (A) (A) (A) (A) (A) (A)
                 (A) (A) (A) (A) (A) (A) (A) (A) (A) (A) (A) (A)
                 (A) (A) (A) (A) (A) (A) (A) (A) (A) (A) (A) (A)
                 (A) (A) (A) (A) (A) (A) (A) (A) (A) (A) (A) (A)
                 (A) (A) (A) (A) (A) (A) (A) (A) (A) (A) (A) (A)
                 (A) (A) (A) (A) (A) (A) (A) (A) (A) (A) (A) (A)
                 (A) (A) (A) (A) (A) (A) (A) (A) (A) (A) (A) (A)
                 (A) (A) (A) (A) (A) (A) (A) (A) (A) (A) (A) (A)
                 (A) (A) (A) (A) (A) (A) (A) (A) (A) (A) (A) (A)
                 (A) (A) (A) (A) (A) (A) (A) (A) (A) (A) (A) (A)
                 (A) (A) (A) (A) (A) (A) (A) (A) (A) (A) (A) (A)
                 (A) (A) (A) (A) (A) (A) (A) (A) (A) (A) (A) (A)
                 (A) (A) (A) (A) (A) (A) (A) (A) (A) (A) (A) (A)
                 (A) (A) (A) (A) (A) (A) (A) (A) (A) (A) (A) (A)
                 (A) (A) (A) (A) (A) (A) (A) (A) (A) (A) (A) (A)
                 (A) (A) (A) (A) (A) (A) (A) (A) (A) (A) (A) (A)
 Beta  Orbitals:
       Occupied  (A) (A) (A) (A) (A) (A) (A) (A) (A) (A) (A) (A)
                 (A) (A) (A) (A) (A) (A) (A) (A) (A) (A) (A) (A)
                 (A)
       Virtual   (A) (A) (A) (A) (A) (A) (A) (A) (A) (A) (A) (A)
                 (A) (A) (A) (A) (A) (A) (A) (A) (A) (A) (A) (A)
                 (A) (A) (A) (A) (A) (A) (A) (A) (A) (A) (A) (A)
                 (A) (A) (A) (A) (A) (A) (A) (A) (A) (A) (A) (A)
                 (A) (A) (A) (A) (A) (A) (A) (A) (A) (A) (A) (A)
                 (A) (A) (A) (A) (A) (A) (A) (A) (A) (A) (A) (A)
                 (A) (A) (A) (A) (A) (A) (A) (A) (A) (A) (A) (A)
                 (A) (A) (A) (A) (A) (A) (A) (A) (A) (A) (A) (A)
                 (A) (A) (A) (A) (A) (A) (A) (A) (A) (A) (A) (A)
                 (A) (A) (A) (A) (A) (A) (A) (A) (A) (A) (A) (A)
                 (A) (A) (A) (A) (A) (A) (A) (A) (A) (A) (A) (A)
                 (A) (A) (A) (A) (A) (A) (A) (A) (A) (A) (A) (A)
                 (A) (A) (A) (A) (A) (A) (A) (A) (A) (A) (A) (A)
                 (A) (A) (A) (A) (A) (A) (A) (A) (A) (A) (A) (A)
                 (A) (A) (A) (A) (A) (A) (A) (A) (A) (A) (A) (A)
                 (A) (A) (A) (A) (A) (A) (A) (A) (A) (A) (A) (A)
                 (A) (A) (A) (A) (A) (A) (A) (A) (A) (A) (A) (A)
 The electronic state is 1-A.
 Alpha  occ. eigenvalues --  -19.27153 -14.66334 -14.62766 -14.52636 -14.45120
 Alpha  occ. eigenvalues --  -10.42916 -10.33338  -1.30799  -1.22963  -1.08733
 Alpha  occ. eigenvalues --   -0.95222  -0.93985  -0.74145  -0.67364  -0.66353
 Alpha  occ. eigenvalues --   -0.64871  -0.63058  -0.58290  -0.57341  -0.54194
 Alpha  occ. eigenvalues --   -0.47295  -0.46352  -0.39894  -0.32166  -0.25766
 Alpha virt. eigenvalues --   -0.10218  -0.06910   0.03674   0.09979   0.13813
 Alpha virt. eigenvalues --    0.14869   0.17718   0.19950   0.23499   0.26953
 Alpha virt. eigenvalues --    0.28991   0.30122   0.32279   0.33071   0.33535
 Alpha virt. eigenvalues --    0.36020   0.37803   0.39342   0.41194   0.44507
 Alpha virt. eigenvalues --    0.45539   0.46669   0.48279   0.49536   0.51121
 Alpha virt. eigenvalues --    0.53191   0.53775   0.54543   0.55087   0.57255
 Alpha virt. eigenvalues --    0.58394   0.60543   0.62714   0.64186   0.66196
 Alpha virt. eigenvalues --    0.68202   0.70694   0.71475   0.77023   0.79254
 Alpha virt. eigenvalues --    0.80921   0.81277   0.83587   0.88785   0.91144
 Alpha virt. eigenvalues --    0.95581   1.00601   1.03382   1.05627   1.10619
 Alpha virt. eigenvalues --    1.12284   1.14090   1.19637   1.27753   1.29345
 Alpha virt. eigenvalues --    1.30005   1.30729   1.32940   1.40265   1.42867
 Alpha virt. eigenvalues --    1.46446   1.46680   1.49264   1.51350   1.52921
 Alpha virt. eigenvalues --    1.55068   1.58276   1.60843   1.65750   1.66226
 Alpha virt. eigenvalues --    1.67692   1.75504   1.76966   1.78064   1.79890
 Alpha virt. eigenvalues --    1.81848   1.88294   1.90082   1.92579   1.96533
 Alpha virt. eigenvalues --    1.99325   2.04807   2.05815   2.10660   2.12769
 Alpha virt. eigenvalues --    2.15325   2.19608   2.23267   2.24369   2.25131
 Alpha virt. eigenvalues --    2.27405   2.32994   2.35392   2.38072   2.42347
 Alpha virt. eigenvalues --    2.45592   2.52295   2.55997   2.61153   2.62681
 Alpha virt. eigenvalues --    2.64007   2.71056   2.74839   2.80676   2.87010
 Alpha virt. eigenvalues --    2.89225   2.93836   2.95456   2.96387   3.02259
 Alpha virt. eigenvalues --    3.04443   3.06084   3.09571   3.13534   3.14947
 Alpha virt. eigenvalues --    3.19561   3.24474   3.26157   3.28148   3.36927
 Alpha virt. eigenvalues --    3.37574   3.40517   3.44690   3.48892   3.53600
 Alpha virt. eigenvalues --    3.56853   3.61137   3.63214   3.68148   3.74247
 Alpha virt. eigenvalues --    3.74798   3.77206   3.78083   3.82096   3.86478
 Alpha virt. eigenvalues --    3.88948   3.96672   4.05100   4.06462   4.09025
 Alpha virt. eigenvalues --    4.13532   4.18349   4.19747   4.28297   4.30196
 Alpha virt. eigenvalues --    4.35832   4.36229   4.41636   4.44912   4.48666
 Alpha virt. eigenvalues --    4.50730   4.55897   4.58020   4.63096   4.69979
 Alpha virt. eigenvalues --    4.71615   4.73010   4.76503   4.78003   4.79895
 Alpha virt. eigenvalues --    4.88214   4.91367   4.93811   4.95176   4.99455
 Alpha virt. eigenvalues --    5.03634   5.06047   5.07377   5.09213   5.10331
 Alpha virt. eigenvalues --    5.15017   5.18333   5.22127   5.27530   5.28969
 Alpha virt. eigenvalues --    5.35443   5.40606   5.46146   5.56882   5.60859
 Alpha virt. eigenvalues --    5.67957   5.77744   5.79057   5.84148   5.99863
 Alpha virt. eigenvalues --    6.36576   6.37937   6.39172   6.48579   6.53961
 Alpha virt. eigenvalues --    6.60876   6.79695   6.90529   6.99482   7.13352
 Alpha virt. eigenvalues --    7.27609   7.47442  22.87709  23.35227  31.69913
 Alpha virt. eigenvalues --   32.08916  32.43906  32.94194  44.08101
  Beta  occ. eigenvalues --  -19.27153 -14.66334 -14.62766 -14.52636 -14.45120
  Beta  occ. eigenvalues --  -10.42916 -10.33338  -1.30799  -1.22963  -1.08733
  Beta  occ. eigenvalues --   -0.95222  -0.93985  -0.74145  -0.67364  -0.66353
  Beta  occ. eigenvalues --   -0.64871  -0.63058  -0.58290  -0.57341  -0.54194
  Beta  occ. eigenvalues --   -0.47295  -0.46352  -0.39894  -0.32166  -0.25766
  Beta virt. eigenvalues --   -0.10218  -0.06910   0.03674   0.09979   0.13813
  Beta virt. eigenvalues --    0.14869   0.17718   0.19950   0.23499   0.26953
  Beta virt. eigenvalues --    0.28991   0.30122   0.32279   0.33071   0.33535
  Beta virt. eigenvalues --    0.36020   0.37803   0.39342   0.41194   0.44507
  Beta virt. eigenvalues --    0.45539   0.46669   0.48279   0.49536   0.51121
  Beta virt. eigenvalues --    0.53191   0.53775   0.54543   0.55087   0.57255
  Beta virt. eigenvalues --    0.58394   0.60543   0.62714   0.64186   0.66196
  Beta virt. eigenvalues --    0.68202   0.70694   0.71475   0.77023   0.79254
  Beta virt. eigenvalues --    0.80921   0.81277   0.83587   0.88785   0.91144
  Beta virt. eigenvalues --    0.95581   1.00601   1.03382   1.05627   1.10619
  Beta virt. eigenvalues --    1.12284   1.14090   1.19637   1.27753   1.29345
  Beta virt. eigenvalues --    1.30005   1.30729   1.32940   1.40265   1.42867
  Beta virt. eigenvalues --    1.46446   1.46680   1.49264   1.51350   1.52921
  Beta virt. eigenvalues --    1.55068   1.58276   1.60843   1.65750   1.66226
  Beta virt. eigenvalues --    1.67692   1.75504   1.76966   1.78064   1.79890
  Beta virt. eigenvalues --    1.81848   1.88294   1.90082   1.92579   1.96533
  Beta virt. eigenvalues --    1.99325   2.04807   2.05815   2.10660   2.12769
  Beta virt. eigenvalues --    2.15325   2.19608   2.23267   2.24369   2.25131
  Beta virt. eigenvalues --    2.27405   2.32994   2.35392   2.38072   2.42347
  Beta virt. eigenvalues --    2.45592   2.52295   2.55997   2.61153   2.62681
  Beta virt. eigenvalues --    2.64007   2.71056   2.74839   2.80676   2.87010
  Beta virt. eigenvalues --    2.89225   2.93836   2.95456   2.96387   3.02259
  Beta virt. eigenvalues --    3.04443   3.06084   3.09571   3.13534   3.14947
  Beta virt. eigenvalues --    3.19561   3.24474   3.26157   3.28148   3.36927
  Beta virt. eigenvalues --    3.37574   3.40517   3.44690   3.48892   3.53600
  Beta virt. eigenvalues --    3.56853   3.61137   3.63214   3.68148   3.74247
  Beta virt. eigenvalues --    3.74798   3.77206   3.78083   3.82096   3.86478
  Beta virt. eigenvalues --    3.88948   3.96672   4.05100   4.06462   4.09025
  Beta virt. eigenvalues --    4.13532   4.18349   4.19747   4.28297   4.30196
  Beta virt. eigenvalues --    4.35832   4.36229   4.41636   4.44912   4.48666
  Beta virt. eigenvalues --    4.50730   4.55897   4.58020   4.63096   4.69979
  Beta virt. eigenvalues --    4.71615   4.73010   4.76503   4.78003   4.79895
  Beta virt. eigenvalues --    4.88214   4.91367   4.93811   4.95176   4.99455
  Beta virt. eigenvalues --    5.03634   5.06047   5.07377   5.09213   5.10331
  Beta virt. eigenvalues --    5.15017   5.18333   5.22127   5.27530   5.28969
  Beta virt. eigenvalues --    5.35443   5.40606   5.46146   5.56882   5.60859
  Beta virt. eigenvalues --    5.67957   5.77744   5.79057   5.84148   5.99863
  Beta virt. eigenvalues --    6.36576   6.37937   6.39172   6.48579   6.53961
  Beta virt. eigenvalues --    6.60876   6.79695   6.90529   6.99482   7.13352
  Beta virt. eigenvalues --    7.27609   7.47442  22.87709  23.35227  31.69913
  Beta virt. eigenvalues --   32.08916  32.43906  32.94194  44.08101
          Condensed to atoms (all electrons):
               1          2          3          4          5          6
     1  N    6.510243   0.673025  -0.073871  -0.002634  -0.000782   0.005346
     2  C    0.673025   4.747141   0.324755  -0.042674   0.004762  -0.072896
     3  N   -0.073871   0.324755   6.231998   0.429449  -0.000084   0.001477
     4  N   -0.002634  -0.042674   0.429449   6.613859   0.000010   0.000277
     5  O   -0.000782   0.004762  -0.000084   0.000010   8.162637   0.217116
     6  N    0.005346  -0.072896   0.001477   0.000277   0.217116   6.216057
     7  C   -0.100411   0.291296  -0.061477   0.003887  -0.070583   0.526735
     8  H    0.343343  -0.060073  -0.010056   0.001017   0.000014   0.000049
     9  H   -0.000146  -0.118344   0.014640   0.003313   0.009656  -0.030960
               7          8          9
     1  N   -0.100411   0.343343  -0.000146
     2  C    0.291296  -0.060073  -0.118344
     3  N   -0.061477  -0.010056   0.014640
     4  N    0.003887   0.001017   0.003313
     5  O   -0.070583   0.000014   0.009656
     6  N    0.526735   0.000049  -0.030960
     7  C    5.146005   0.015870   0.425039
     8  H    0.015870   0.489766  -0.000252
     9  H    0.425039  -0.000252   0.590628
          Atomic-Atomic Spin Densities.
               1          2          3          4          5          6
     1  N   -0.000000   0.000000   0.000000  -0.000000   0.000000  -0.000000
     2  C    0.000000  -0.000000  -0.000000   0.000000  -0.000000   0.000000
     3  N    0.000000  -0.000000  -0.000000   0.000000  -0.000000   0.000000
     4  N   -0.000000   0.000000   0.000000  -0.000000   0.000000  -0.000000
     5  O    0.000000  -0.000000  -0.000000   0.000000   0.000000  -0.000000
     6  N   -0.000000   0.000000   0.000000  -0.000000  -0.000000   0.000000
     7  C   -0.000000  -0.000000  -0.000000  -0.000000  -0.000000  -0.000000
     8  H    0.000000  -0.000000   0.000000  -0.000000  -0.000000   0.000000
     9  H    0.000000   0.000000  -0.000000   0.000000   0.000000  -0.000000
               7          8          9
     1  N   -0.000000   0.000000   0.000000
     2  C   -0.000000  -0.000000   0.000000
     3  N   -0.000000   0.000000  -0.000000
     4  N   -0.000000  -0.000000   0.000000
     5  O   -0.000000  -0.000000   0.000000
     6  N   -0.000000   0.000000  -0.000000
     7  C    0.000000   0.000000  -0.000000
     8  H    0.000000   0.000000   0.000000
     9  H   -0.000000   0.000000   0.000000
 Mulliken charges and spin densities:
               1          2
     1  N   -0.354113  -0.000000
     2  C    0.253008  -0.000000
     3  N    0.143169  -0.000000
     4  N   -0.006503  -0.000000
     5  O   -0.322746   0.000000
     6  N    0.136799   0.000000
     7  C   -0.176361   0.000000
     8  H    0.220321   0.000000
     9  H    0.106426   0.000000
 Sum of Mulliken charges =  -0.00000  -0.00000
 Mulliken charges and spin densities with hydrogens summed into heavy atoms:
               1          2
     1  N   -0.133792  -0.000000
     2  C    0.253008  -0.000000
     3  N    0.143169  -0.000000
     4  N   -0.006503  -0.000000
     5  O   -0.322746   0.000000
     6  N    0.136799   0.000000
     7  C   -0.069935   0.000000
 Electronic spatial extent (au):  <R**2>=            829.0038
 Charge=             -0.0000 electrons
 Dipole moment (field-independent basis, Debye):
    X=             -6.3785    Y=             -1.6288    Z=              0.4256  Tot=              6.5970
 Quadrupole moment (field-independent basis, Debye-Ang):
   XX=            -44.6794   YY=            -38.5129   ZZ=            -39.1267
   XY=             -2.0393   XZ=              0.5421   YZ=              0.0332
 Traceless Quadrupole moment (field-independent basis, Debye-Ang):
   XX=             -3.9064   YY=              2.2601   ZZ=              1.6463
   XY=             -2.0393   XZ=              0.5421   YZ=              0.0332
 Octapole moment (field-independent basis, Debye-Ang**2):
  XXX=            -36.4569  YYY=             -4.7334  ZZZ=             -0.7048  XYY=             -6.1399
  XXY=              8.3692  XXZ=              1.5417  XZZ=              0.0190  YZZ=             -1.1943
  YYZ=              0.3008  XYZ=              1.2368
 Hexadecapole moment (field-independent basis, Debye-Ang**3):
 XXXX=           -910.0738 YYYY=           -171.7048 ZZZZ=            -40.2989 XXXY=             -7.6862
 XXXZ=              0.7722 YYYX=            -14.1364 YYYZ=             -1.0185 ZZZX=             -0.2108
 ZZZY=              0.7818 XXYY=           -151.5475 XXZZ=           -138.9448 YYZZ=            -37.7508
 XXYZ=              2.4587 YYXZ=             -0.0322 ZZXY=              0.1630
 N-N= 2.566098986424D+02 E-N=-1.381856369940D+03  KE= 3.700209993910D+02
                          Isotropic Fermi Contact Couplings
        Atom                 a.u.       MegaHertz       Gauss      10(-4) cm-1
     1  N(14)             -0.00000      -0.00000      -0.00000      -0.00000
     2  C(13)              0.00000       0.00000       0.00000       0.00000
     3  N(14)              0.00000       0.00000       0.00000       0.00000
     4  N(14)             -0.00000      -0.00000      -0.00000      -0.00000
     5  O(17)              0.00000      -0.00000      -0.00000      -0.00000
     6  N(14)              0.00000       0.00000       0.00000       0.00000
     7  C(13)              0.00000       0.00000       0.00000       0.00000
     8  H(1)               0.00000       0.00000       0.00000       0.00000
     9  H(1)               0.00000       0.00000       0.00000       0.00000
 --------------------------------------------------------
       Center         ----  Spin Dipole Couplings  ----
                      3XX-RR        3YY-RR        3ZZ-RR
 --------------------------------------------------------
     1   Atom        0.000000      0.000000     -0.000000
     2   Atom        0.000000     -0.000000     -0.000000
     3   Atom        0.000000      0.000000     -0.000000
     4   Atom        0.000000      0.000000     -0.000000
     5   Atom       -0.000000      0.000000     -0.000000
     6   Atom       -0.000000      0.000000     -0.000000
     7   Atom       -0.000000     -0.000000      0.000000
     8   Atom       -0.000000      0.000000      0.000000
     9   Atom       -0.000000      0.000000     -0.000000
 --------------------------------------------------------
                        XY            XZ            YZ
 --------------------------------------------------------
     1   Atom       -0.000000      0.000000     -0.000000
     2   Atom       -0.000000     -0.000000     -0.000000
     3   Atom       -0.000000      0.000000     -0.000000
     4   Atom       -0.000000      0.000000      0.000000
     5   Atom        0.000000      0.000000      0.000000
     6   Atom       -0.000000     -0.000000     -0.000000
     7   Atom        0.000000     -0.000000     -0.000000
     8   Atom        0.000000     -0.000000     -0.000000
     9   Atom        0.000000     -0.000000     -0.000000
 --------------------------------------------------------


 ---------------------------------------------------------------------------------
              Anisotropic Spin Dipole Couplings in Principal Axis System
 ---------------------------------------------------------------------------------

       Atom             a.u.   MegaHertz   Gauss  10(-4) cm-1        Axes

              Baa    -0.0000    -0.000    -0.000    -0.000 -0.0013  0.0272  0.9996
     1 N(14)  Bbb     0.0000     0.000     0.000     0.000  0.0570  0.9980 -0.0271
              Bcc     0.0000     0.000     0.000     0.000  0.9984 -0.0569  0.0029
 
              Baa    -0.0000    -0.000    -0.000    -0.000  0.2173  0.4388  0.8719
     2 C(13)  Bbb     0.0000     0.000     0.000     0.000  0.2741  0.8299 -0.4859
              Bcc     0.0000     0.000     0.000     0.000  0.9368 -0.3446 -0.0601
 
              Baa    -0.0000    -0.000    -0.000    -0.000 -0.0662  0.0276  0.9974
     3 N(14)  Bbb     0.0000     0.000     0.000     0.000  0.9383  0.3418  0.0529
              Bcc     0.0000     0.000     0.000     0.000 -0.3395  0.9394 -0.0485
 
              Baa    -0.0000    -0.000    -0.000    -0.000 -0.1014 -0.0101  0.9948
     4 N(14)  Bbb     0.0000     0.000     0.000     0.000  0.0026  0.9999  0.0105
              Bcc     0.0000     0.000     0.000     0.000  0.9948 -0.0037  0.1014
 
              Baa    -0.0000     0.000     0.000     0.000 -0.0766 -0.0152  0.9969
     5 O(17)  Bbb    -0.0000     0.000     0.000     0.000  0.9941 -0.0786  0.0752
              Bcc     0.0000    -0.000    -0.000    -0.000  0.0772  0.9968  0.0211
 
              Baa    -0.0000    -0.000    -0.000    -0.000  0.1826  0.1726  0.9679
     6 N(14)  Bbb    -0.0000    -0.000    -0.000    -0.000  0.9829 -0.0084 -0.1839
              Bcc     0.0000     0.000     0.000     0.000 -0.0236  0.9849 -0.1712
 
              Baa    -0.0000    -0.000    -0.000    -0.000 -0.5241  0.8258 -0.2083
     7 C(13)  Bbb    -0.0000    -0.000    -0.000    -0.000  0.6883  0.5548  0.4674
              Bcc     0.0000     0.000     0.000     0.000 -0.5016 -0.1016  0.8591
 
              Baa    -0.0000    -0.000    -0.000    -0.000  0.8914 -0.4496  0.0567
     8 H(1)   Bbb     0.0000     0.000     0.000     0.000 -0.0283  0.0696  0.9972
              Bcc     0.0000     0.000     0.000     0.000  0.4523  0.8905 -0.0493
 
              Baa    -0.0000    -0.000    -0.000    -0.000  0.8639 -0.3054  0.4005
     9 H(1)   Bbb    -0.0000    -0.000    -0.000    -0.000 -0.3180  0.2858  0.9040
              Bcc     0.0000     0.000     0.000     0.000  0.3905  0.9083 -0.1498
 

 ---------------------------------------------------------------------------------

 1\1\GINC-NODE305\SP\UwB97XD\def2TZVP\C2H2N4O1\MHARRIS\22-Jun-2021\0\\#
  UwB97XD/Def2TZVP\\something title\\0,1\N,0,-0.530495,-0.139088,-1.269
 378\C,0,-0.433318,-0.833514,-0.189336\N,0,-1.535308,-1.144271,0.497654
 \N,0,-2.631832,-1.319478,0.753242\O,0,3.049686,-1.448183,-0.158853\N,0
 ,1.864205,-1.280503,-0.360831\C,0,0.831177,-1.232084,0.387772\H,0,-1.4
 56346,0.152153,-1.561414\H,0,0.818306,-1.566996,1.423464\\Version=ES64
 L-G16RevA.03\State=1-A\HF=-371.4126975\S2=0.\S2-1=0.\S2A=0.\RMSD=8.196
 e-09\Dipole=-2.4384162,-0.016323,0.8889169\Quadrupole=-2.5976149,1.426
 8088,1.1708061,-0.1870707,1.905605,-0.3111186\PG=C01 [X(C2H2N4O1)]\\@


 BE LIKE A POSTAGE STAMP.  STICK TO ONE THING UNTIL
 YOU GET THERE -- JOSH BILLINGS
 Job cpu time:       0 days  0 hours 25 minutes 24.4 seconds.
 Elapsed time:       0 days  0 hours  6 minutes 29.2 seconds.
 File lengths (MBytes):  RWF=     54 Int=      0 D2E=      0 Chk=      5 Scr=      1
 Normal termination of Gaussian 16 at Tue Jun 22 17:35:34 2021.
