      -----------------------------------------------------------      
     |                   =====================                   |     
     |                           x T B                           |     
     |                   =====================                   |     
     |                         S. Grimme                         |     
     |          Mulliken Center for Theoretical Chemistry        |     
     |                    University of Bonn                     |     
     |                 Version 6.1.4 (SAW190525)                 |     
      -----------------------------------------------------------      

   This program is distributed in the hope that it will be useful,
   but WITHOUT ANY WARRANTY; without even the implied warranty of
   MERCHANTABILITY or FITNESS FOR A PARTICULAR PURPOSE.
   
   FOR NON-COMMERCIAL, ACADEMIA USE ONLY.
   
   Cite this work as:
   S. Grimme, C. Bannwarth, P. Shushkov, J. Comput. Theory Chem., 2017,
   13, 1989-2009. DOI: 10.1021/acs.jctc.7b00118
   C. Bannwarth, S. Ehlert and S. Grimme., J. Comput. Theory Chem., 2019,
   just accepted. DOI: 10.1021/acs.jctc.8b01176
   
   for sTDA-xTB:
   S. Grimme and C. Bannwarth, J. Chem. Phys., 2016, 145, 054103.
   DOI: 10.1063/1.4959605
   
   in the mass-spec context:
   V. Asgeirsson, C. Bauer and S. Grimme, Chem. Sci., 2017, 8, 4879.
   DOI: 10.1039/c7sc00601b
   
   for metadynamics refer to:
   S. Grimme, J. Chem. Theory Comput. Article ASAP, 2019,
   DOI: 10.1021/acs.jctc.9b00143
   
   with help from (in alphabetical order)
   C. Bannwarth, F. Bohle, G. Brandenburg, E. Caldeweyher, M. Checinski,
   S. Dohm, S. Ehlert, S. Ehrlich, F. März, H. Neugebauer, J. Pisarek,
   P. Pracht, P. Shushkov, and S. Spicher.
   
 * started run on 2021/06/02 at 10:00:08.840     

           -------------------------------------------------
          |                Calculation Setup                |
           -------------------------------------------------

          program call               : /groups/kemi/koerstz/opt/xtb/6.1/bin/xtb path_point_16.xyz --gfn2 --acc 0.2 --chrg 0
          hostname                   : node305
          coordinate file            : path_point_16.xyz
          omp threads                :                     1
          number of atoms            :                     9
          number of electrons        :                    36
          charge                     :                     0
          spin                       :                   0.0
          first test random number   :      0.68636107367495


########################################################################
# WARNING! Please study the warnings concerning your input carefully
#  - XTBPATH is not set, using XTBHOME instead
########################################################################

           ------------------------------------------------- 
          |                 G F N 2 - x T B                 |
          | Geometry, Frequencies, Noncovalent interactions |
          |            JCTC 2018 parametrisation            |
           ------------------------------------------------- 
             k(s)              :                1.8500
             k(p)              :                2.2300
             k(d)              :                2.2300
             k(f)              :                2.0000
             kEN (H0ij)        :               -2.0000
             D4 a1             :                0.5200
             D4 a2             :                5.0000
             D4 s6             :                1.0000
             D4 s8             :                2.7000
             D4 s9             :                5.0000
             alphaj            :                2.0000

  Z AO/shell   Hii/eV     exponent
  1     Wed Apr 25 08:07:45 CEST 2018   EN: 2.200 GM2: 0.406  GM3: 0.0800  RAES: 1.40
     1s    -10.707211    1.230000
  6     Wed Apr 25 08:07:45 CEST 2018   EN: 2.550 GM2: 0.538  GM3: 0.1500  RAES: 3.00
     2s    -13.970922    2.096432
     2p    -10.063292    1.800000
  7     Wed Apr 25 08:07:45 CEST 2018   EN: 3.040 GM2: 0.461  GM3:-0.0640  RAES: 1.90
     2s    -16.686243    2.339881
     2p    -12.523956    2.014332
  8     Wed Apr 25 08:07:45 CEST 2018   EN: 3.440 GM2: 0.452  GM3:-0.0517  RAES: 1.80
     2s    -20.229985    2.439742
     2p    -15.503117    2.137023


            Z     q(EN)     CN     RAES       Cart. coordinates
     1  N   5.0   -0.42    2.02    1.90    -0.97075    -0.29418    -2.41665
     2  C   4.0    0.31    3.01    3.02    -0.82984    -1.62464    -0.38265
     3  N   5.0   -0.15    2.03    1.90    -2.91120    -2.15062     0.94561
     4  N   5.0   -0.15    1.00    1.90    -4.97474    -2.48853     1.43158
     5  O   6.0   -0.10    1.00    1.80     5.77537    -2.65709    -0.44025
     6  N   5.0   -0.14    2.01    1.90     3.53103    -2.45798    -0.58089
     7  C   4.0    0.14    3.01    3.02     1.55658    -2.35204     0.76437
     8  H   1.0    0.33    1.00    1.43    -2.70659     0.33005    -2.94258
     9  H   1.0    0.18    0.99    1.43     1.48491    -2.95718     2.71878

           ------------------------------------------------- 
          |        Self-Consistent Charge Iterations        |
           ------------------------------------------------- 
q/qsh data taken from xtbrestart
CAMM data taken from xtbrestart

          ...................................................
          :                      SETUP                      :
          :.................................................:
          :  # basis functions                  30          :
          :  # atomic orbitals                  30          :
          :  # shells                           16          :
          :  # electrons                        36          :
          :  max. iterations                   250          :
          :  Hamiltonian                  GFN2-xTB          :
          :  restarted?                       true          :
          :  GBSA solvation                  false          :
          :  PC potential                    false          :
          :  electronic temp.          300.0000000     K    :
          :  accuracy                    0.2000000          :
          :  -> integral cutoff          0.3198970E+02      :
          :  -> integral neglect         0.2000000E-08      :
          :  -> SCF convergence          0.2000000E-06 Eh   :
          :  -> wf. convergence          0.2000000E-04 e    :
          :  Broyden damping             0.4000000          :
          ...................................................

 iter      E             dE          RMSdq      gap      omega  full diag
   1    -20.8364834 -0.208365E+02  0.438E+00    0.40       0.0  T
   2    -20.6265864  0.209897E+00  0.703E+00    1.37       1.0  T
   3    -20.8673813 -0.240795E+00  0.431E+00    1.42       1.0  T
   4    -20.9363323 -0.689510E-01  0.339E+00    0.46       1.0  T
   5    -20.9493580 -0.130257E-01  0.316E+00    0.23       1.0  T
   6    -21.0683538 -0.118996E+00  0.106E+00    0.18       1.0  T
   7    -21.0566652  0.116887E-01  0.140E+00    0.18       1.0  T
   8    -20.8881184  0.168547E+00  0.387E+00    0.27       1.0  T
   9    -21.0812243 -0.193106E+00  0.176E-01    0.16       1.0  T
  10    -21.0808896  0.334629E-03  0.218E-01    0.15       1.0  T
  11    -21.0748183  0.607129E-02  0.711E-01    0.15       1.0  T
  12    -21.0812625 -0.644412E-02  0.129E-01    0.15       1.0  T
  13    -21.0814755 -0.213035E-03  0.596E-03    0.15       5.6  T
  14    -21.0813533  0.122185E-03  0.966E-02    0.15       1.0  T
  15    -21.0814748 -0.121468E-03  0.898E-03    0.15       3.7  T
  16    -21.0814744  0.348662E-06  0.936E-03    0.15       3.6  T
  17    -21.0814755 -0.110067E-05  0.195E-03    0.15      17.1  T
  18    -21.0814755  0.307413E-07  0.247E-03    0.15      13.5  T
  19    -21.0814756 -0.800701E-07  0.148E-04    0.15     224.5  T
  20    -21.0814756 -0.186432E-09  0.889E-05    0.15     375.2  T

   *** convergence criteria satisfied after 20 iterations ***

         #    Occupation            Energy/Eh            Energy/eV
      -------------------------------------------------------------
         1        2.0000           -0.7519524             -20.4617
       ...           ...                  ...                  ...
        12        2.0000           -0.5532148             -15.0537
        13        2.0000           -0.5198198             -14.1450
        14        2.0000           -0.5052258             -13.7479
        15        2.0000           -0.5034117             -13.6985
        16        2.0000           -0.4281862             -11.6515
        17        2.0000           -0.4263802             -11.6024
        18        1.8967           -0.3594419              -9.7809 (HOMO)
        19        0.1033           -0.3539131              -9.6305 (LUMO)
        20                         -0.3377762              -9.1914
        21                         -0.2778645              -7.5611
        22                         -0.1811685              -4.9298
        23                          0.0270376               0.7357
       ...                                ...                  ...
        30                          0.8560205              23.2935
      -------------------------------------------------------------
                  HL-Gap            0.0055288 Eh            0.1504 eV
             Fermi-level           -0.3566775 Eh           -9.7057 eV

 SCC (total)                   0 d,  0 h,  0 min,  0.009 sec
 SCC setup                      ...        0 min,  0.000 sec (  1.416%)
 Dispersion                     ...        0 min,  0.000 sec (  0.675%)
 integral evaluation            ...        0 min,  0.001 sec ( 11.871%)
 zeroth order Hamiltonian       ...        0 min,  0.000 sec (  0.348%)
 iterations                     ...        0 min,  0.006 sec ( 62.222%)
 molecular gradient             ...        0 min,  0.002 sec ( 21.336%)
 printout                       ...        0 min,  0.000 sec (  1.762%)

         :::::::::::::::::::::::::::::::::::::::::::::::::::::
         ::                     SUMMARY                     ::
         :::::::::::::::::::::::::::::::::::::::::::::::::::::
         :: total energy              -20.831519865885 Eh   ::
         :: gradient norm               0.039421200656 Eh/α ::
         :: HOMO-LUMO gap               0.150446851630 eV   ::
         ::.................................................::
         :: SCC energy                -21.081475583879 Eh   ::
         :: -> isotropic ES             0.025701743551 Eh   ::
         :: -> anisotropic ES           0.004411243347 Eh   ::
         :: -> anisotropic XC           0.024227137189 Eh   ::
         :: -> dispersion              -0.005515931200 Eh   ::
         :: repulsion energy            0.249954938331 Eh   ::
         :: add. restraining            0.000000000000 Eh   ::
         :::::::::::::::::::::::::::::::::::::::::::::::::::::

           -------------------------------------------------
          |                Property Printout                |
           -------------------------------------------------

    * Orbital Energies and Occupations

         #    Occupation            Energy/Eh            Energy/eV
      -------------------------------------------------------------
         1        2.0000           -0.7519524             -20.4617
       ...           ...                  ...                  ...
         6        2.0000           -0.6324508             -17.2099
         7        2.0000           -0.6115793             -16.6419
         8        2.0000           -0.6085354             -16.5591
         9        2.0000           -0.5953768             -16.2010
        10        2.0000           -0.5896502             -16.0452
        11        2.0000           -0.5680945             -15.4586
        12        2.0000           -0.5532148             -15.0537
        13        2.0000           -0.5198198             -14.1450
        14        2.0000           -0.5052258             -13.7479
        15        2.0000           -0.5034117             -13.6985
        16        2.0000           -0.4281862             -11.6515
        17        2.0000           -0.4263802             -11.6024
        18        1.8967           -0.3594419              -9.7809 (HOMO)
        19        0.1033           -0.3539131              -9.6305 (LUMO)
        20                         -0.3377762              -9.1914
        21                         -0.2778645              -7.5611
        22                         -0.1811685              -4.9298
        23                          0.0270376               0.7357
        24                          0.0560502               1.5252
        25                          0.1773055               4.8247
        26                          0.2001933               5.4475
        27                          0.3307625               9.0005
        28                          0.4624470              12.5838
        29                          0.6773246              18.4309
        30                          0.8560205              23.2935
      -------------------------------------------------------------
                  HL-Gap            0.0055288 Eh            0.1504 eV
             Fermi-level           -0.3566775 Eh           -9.7057 eV

   #   Z        covCN         q      C6AA      α(0)
   1   7 N      1.791    -0.312    28.921     7.966
   2   6 C      2.815     0.147    24.799     8.159
   3   7 N      1.916     0.131    19.623     6.568
   4   7 N      0.984    -0.098    22.794     6.867
   5   8 O      0.925    -0.257    18.994     5.845
   6   7 N      1.846     0.192    18.648     6.400
   7   6 C      2.832    -0.036    28.875     8.806
   8   1 H      0.860     0.156     1.362     1.828
   9   1 H      0.925     0.077     2.006     2.215

 Mol. C6AA /au·bohr⁶  :       1305.335181
 Mol. C8AA /au·bohr⁸  :      29827.040661
 Mol. α(0) /au        :         54.653173


Wiberg/Mayer (AO) data.
largest (>0.10) Wiberg bond orders for each atom
          total WBO             WBO to atom ...
     1  N   3.081        C    2 1.523    H    8 0.945    N    4 0.162    N    6 0.129    O    5 0.128    N    3 0.125
     2  C   3.932        N    1 1.523    N    3 1.138    C    7 1.067    N    4 0.121
     3  N   3.690        N    4 2.259    C    2 1.138    N    1 0.125
     4  N   2.760        N    3 2.259    N    1 0.162    N    6 0.160    C    2 0.121
     5  O   2.008        N    6 1.509    C    7 0.254    N    1 0.128
     6  N   3.518        C    7 1.602    O    5 1.509    N    4 0.160    N    1 0.129
     7  C   3.944        N    6 1.602    C    2 1.067    H    9 0.909    O    5 0.254
     8  H   0.976        N    1 0.945
     9  H   0.982        C    7 0.909

molecular dipole:
                 x           y           z       tot (Debye)
 q only:       -0.882      -0.067       0.409
   full:       -1.093      -0.087       0.663       3.257
molecular quadrupole (traceless):
                xx          xy          yy          xz          yz          zz
 q only:       -6.578       2.469       3.418       2.134      -1.177       3.160
  q+dip:       -8.943       1.860       4.745       4.931      -1.948       4.198
   full:      -10.101       1.771       5.922       5.547      -1.680       4.179


           -------------------------------------------------
          | TOTAL ENERGY              -20.831519865885 Eh   |
          | GRADIENT NORM               0.039421200656 Eh/α |
          | HOMO-LUMO GAP               0.150446851630 eV   |
           -------------------------------------------------

------------------------------------------------------------------------
 * finished run on 2021/06/02 at 10:00:08.858     
------------------------------------------------------------------------
 total:
 * wall-time:     0 d,  0 h,  0 min,  0.017 sec
 *  cpu-time:     0 d,  0 h,  0 min,  0.016 sec
 * ratio c/w:     0.987 speedup
 SCF:
 * wall-time:     0 d,  0 h,  0 min,  0.009 sec
 *  cpu-time:     0 d,  0 h,  0 min,  0.009 sec
 * ratio c/w:     1.000 speedup

