 Entering Gaussian System, Link 0=/software/kemi/g16/avx2/g16/g16
 Initial command:
 /software/kemi/g16/avx2/g16/l1.exe "/scratch/23935644/Gau-21631.inp" -scrdir="/scratch/23935644/"
 Entering Link 1 = /software/kemi/g16/avx2/g16/l1.exe PID=     21632.
  
 Copyright (c) 1988,1990,1992,1993,1995,1998,2003,2009,2016,
            Gaussian, Inc.  All Rights Reserved.
  
 This is part of the Gaussian(R) 16 program.  It is based on
 the Gaussian(R) 09 system (copyright 2009, Gaussian, Inc.),
 the Gaussian(R) 03 system (copyright 2003, Gaussian, Inc.),
 the Gaussian(R) 98 system (copyright 1998, Gaussian, Inc.),
 the Gaussian(R) 94 system (copyright 1995, Gaussian, Inc.),
 the Gaussian 92(TM) system (copyright 1992, Gaussian, Inc.),
 the Gaussian 90(TM) system (copyright 1990, Gaussian, Inc.),
 the Gaussian 88(TM) system (copyright 1988, Gaussian, Inc.),
 the Gaussian 86(TM) system (copyright 1986, Carnegie Mellon
 University), and the Gaussian 82(TM) system (copyright 1983,
 Carnegie Mellon University). Gaussian is a federally registered
 trademark of Gaussian, Inc.
  
 This software contains proprietary and confidential information,
 including trade secrets, belonging to Gaussian, Inc.
  
 This software is provided under written license and may be
 used, copied, transmitted, or stored only in accord with that
 written license.
  
 The following legend is applicable only to US Government
 contracts under FAR:
  
                    RESTRICTED RIGHTS LEGEND
  
 Use, reproduction and disclosure by the US Government is
 subject to restrictions as set forth in subparagraphs (a)
 and (c) of the Commercial Computer Software - Restricted
 Rights clause in FAR 52.227-19.
  
 Gaussian, Inc.
 340 Quinnipiac St., Bldg. 40, Wallingford CT 06492
  
  
 ---------------------------------------------------------------
 Warning -- This program may not be used in any manner that
 competes with the business of Gaussian, Inc. or will provide
 assistance to any competitor of Gaussian, Inc.  The licensee
 of this program is prohibited from giving any competitor of
 Gaussian, Inc. access to this program.  By using this program,
 the user acknowledges that Gaussian, Inc. is engaged in the
 business of creating and licensing software in the field of
 computational chemistry and represents and warrants to the
 licensee that it is not a competitor of Gaussian, Inc. and that
 it will not use this program in any manner prohibited above.
 ---------------------------------------------------------------
  

 Cite this work as:
 Gaussian 16, Revision A.03,
 M. J. Frisch, G. W. Trucks, H. B. Schlegel, G. E. Scuseria, 
 M. A. Robb, J. R. Cheeseman, G. Scalmani, V. Barone, 
 G. A. Petersson, H. Nakatsuji, X. Li, M. Caricato, A. V. Marenich, 
 J. Bloino, B. G. Janesko, R. Gomperts, B. Mennucci, H. P. Hratchian, 
 J. V. Ortiz, A. F. Izmaylov, J. L. Sonnenberg, D. Williams-Young, 
 F. Ding, F. Lipparini, F. Egidi, J. Goings, B. Peng, A. Petrone, 
 T. Henderson, D. Ranasinghe, V. G. Zakrzewski, J. Gao, N. Rega, 
 G. Zheng, W. Liang, M. Hada, M. Ehara, K. Toyota, R. Fukuda, 
 J. Hasegawa, M. Ishida, T. Nakajima, Y. Honda, O. Kitao, H. Nakai, 
 T. Vreven, K. Throssell, J. A. Montgomery, Jr., J. E. Peralta, 
 F. Ogliaro, M. J. Bearpark, J. J. Heyd, E. N. Brothers, K. N. Kudin, 
 V. N. Staroverov, T. A. Keith, R. Kobayashi, J. Normand, 
 K. Raghavachari, A. P. Rendell, J. C. Burant, S. S. Iyengar, 
 J. Tomasi, M. Cossi, J. M. Millam, M. Klene, C. Adamo, R. Cammi, 
 J. W. Ochterski, R. L. Martin, K. Morokuma, O. Farkas, 
 J. B. Foresman, and D. J. Fox, Gaussian, Inc., Wallingford CT, 2016.
 
 ******************************************
 Gaussian 16:  ES64L-G16RevA.03 25-Dec-2016
                23-Jun-2021 
 ******************************************
 %nprocshared=4
 Will use up to    4 processors via shared memory.
 %mem=8GB
 -----------------------------------------------------------------
 #irc=(reverse, calcfc, maxpoint=100, stepsize=5) UwB97XD/Def2TZVP
 -----------------------------------------------------------------
 1/10=4,18=10,22=2,26=3,38=1,39=5,42=100,44=3,172=1/1,23;
 2/12=2,17=6,18=5,29=1,40=1/2;
 3/5=44,7=101,11=2,25=1,30=1,71=2,74=-58,116=2,140=1/1,2,3;
 4//1;
 5/5=2,38=5/2;
 8/6=4,10=90,11=11/1;
 11/6=1,8=1,9=11,15=111,16=1/1,2,10;
 10/6=1,13=1/2;
 6/7=2,8=2,9=2,10=2,28=1/1;
 7/10=1,18=20,25=1/1,2,3,16;
 1/10=4,18=10,22=2,26=3,39=5,42=100,44=3/23(2);
 2/29=1/2;
 99/5=20/99;
 2/29=1/2;
 3/5=44,7=101,11=2,25=1,30=1,71=2,74=-58,116=2,140=1/1,2,3;
 4/5=5,16=3,69=1/1;
 5/5=2,38=5/2;
 8/6=4,10=90,11=11/1;
 11/6=1,8=1,9=11,15=111,16=1/1,2,10;
 10/6=1,13=1/2;
 7/10=1,18=20,25=1/1,2,3,16;
 1/18=10,22=2,26=3,39=5,42=100,44=3/23(-8);
 2/29=1/2;
 6/7=2,8=2,9=2,10=2,19=2,28=1/1;
 99/5=20,9=1/99;
 ---------------
 something title
 ---------------
 Symbolic Z-matrix:
 Charge =  0 Multiplicity = 1
 N                     0.52002   1.77725   0. 
 C                     0.30195   0.57711   0.00001 
 N                    -2.77246  -0.62113   0. 
 N                    -3.68456  -0.02833   0. 
 O                     2.99529  -0.40129   0. 
 N                     1.80794  -0.57802  -0.00001 
 C                     0.57509  -0.79953   0.00001 
 H                    -0.28205   2.39878   0.00001 
 H                    -0.03903  -1.70231   0.00002 
 
 IRC-IRC-IRC-IRC-IRC-IRC-IRC-IRC-IRC-IRC-IRC-IRC-IRC-IRC-IRC-IRC-IRC-IRC
 ------------------------------------------------------------------------
 INPUT DATA FOR L123
 ------------------------------------------------------------------------
 GENERAL PARAMETERS:
 Rxn path following direction = Reverse
 Maximum points per path      = 100
 Step size                    =   0.050 bohr
 Integration scheme           = HPC                                 
    Redo corrector integration= Yes                                 
    DWI Weight Power          =  2
    DWI will use Hessian update vectors when possible.
    Max correction cycles     =  20
 Initial Hessian              = CalcFC
 Hessian evaluation           = All updating
 Hessian updating method      = Bofill                              
 ------------------------------------------------------------------------
 IRC-IRC-IRC-IRC-IRC-IRC-IRC-IRC-IRC-IRC-IRC-IRC-IRC-IRC-IRC-IRC-IRC-IRC
                          Input orientation:                          
 ---------------------------------------------------------------------
 Center     Atomic      Atomic             Coordinates (Angstroms)
 Number     Number       Type             X           Y           Z
 ---------------------------------------------------------------------
      1          7           0        0.520020    1.777250    0.000000
      2          6           0        0.301950    0.577110    0.000010
      3          7           0       -2.772460   -0.621130    0.000000
      4          7           0       -3.684560   -0.028330    0.000000
      5          8           0        2.995290   -0.401290    0.000000
      6          7           0        1.807940   -0.578020   -0.000010
      7          6           0        0.575090   -0.799530    0.000010
      8          1           0       -0.282050    2.398780    0.000010
      9          1           0       -0.039030   -1.702310    0.000020
 ---------------------------------------------------------------------
                    Distance matrix (angstroms):
                    1          2          3          4          5
     1  N    0.000000
     2  C    1.219791   0.000000
     3  N    4.073408   3.299663   0.000000
     4  N    4.575873   4.032223   1.087814   0.000000
     5  O    3.297423   2.865545   5.771938   6.690254   0.000000
     6  N    2.684406   1.897981   4.580603   5.519938   1.200431
     7  C    2.577368   1.403475   3.352300   4.328899   2.452746
     8  H    1.014700   1.912992   3.914332   4.179466   4.310609
     9  H    3.524184   2.304783   2.939488   4.011496   3.301477
                    6          7          8          9
     6  N    0.000000
     7  C    1.252592   0.000000
     8  H    3.637224   3.311174   0.000000
     9  H    2.162250   1.091859   4.108284   0.000000
 Symmetry turned off by external request.
 Stoichiometry    C2H2N4O
 Framework group  C1[X(C2H2N4O)]
 Deg. of freedom    21
 Full point group                 C1      NOp   1
 Rotational constants (GHZ):           6.5395932           1.0190211           0.8816409
 Standard basis: def2TZVP (5D, 7F)
   229 basis functions,   373 primitive gaussians,   264 cartesian basis functions
    25 alpha electrons       25 beta electrons
       nuclear repulsion energy       232.9728566274 Hartrees.
 NAtoms=    9 NActive=    9 NUniq=    9 SFac= 1.00D+00 NAtFMM=   60 NAOKFM=F Big=F
 Integral buffers will be    131072 words long.
 Raffenetti 2 integral format.
 Two-electron integral symmetry is turned off.
 Nuclear repulsion after empirical dispersion term =      232.9705536795 Hartrees.
 One-electron integrals computed using PRISM.
   1 Symmetry operations used in ECPInt.
 ECPInt:  NShTT=    3655 NPrTT=   11788 LenC2=    3438 LenP2D=    8599.
 LDataN:  DoStor=T MaxTD1= 6 Len=  172
 NBasis=   229 RedAO= T EigKep=  1.42D-04  NBF=   229
 NBsUse=   229 1.00D-06 EigRej= -1.00D+00 NBFU=   229
 ExpMin= 9.52D-02 ExpMax= 2.70D+04 ExpMxC= 9.22D+02 IAcc=3 IRadAn=         5 AccDes= 0.00D+00
 Harris functional with IExCor= 4639 and IRadAn=       5 diagonalized for initial guess.
 HarFok:  IExCor= 4639 AccDes= 0.00D+00 IRadAn=         5 IDoV= 1 UseB2=F ITyADJ=14
 ICtDFT=  3500011 ScaDFX=  1.000000  1.000000  1.000000  1.000000
 FoFCou: FMM=F IPFlag=           0 FMFlag=      100000 FMFlg1=           0
         NFxFlg=           0 DoJE=T BraDBF=F KetDBF=T FulRan=T
         wScrn=  0.000000 ICntrl=       500 IOpCl=  0 I1Cent=   200000004 NGrid=           0
         NMat0=    1 NMatS0=      1 NMatT0=    0 NMatD0=    1 NMtDS0=    0 NMtDT0=    0
 Symmetry not used in FoFCou.
 Initial guess <Sx>= 0.0000 <Sy>= 0.0000 <Sz>= 0.0000 <S**2>=-0.0000 S=-0.0000
 Requested convergence on RMS density matrix=1.00D-08 within 128 cycles.
 Requested convergence on MAX density matrix=1.00D-06.
 Requested convergence on             energy=1.00D-06.
 No special actions if energy rises.
 Integral accuracy reduced to 1.0D-05 until final iterations.
 Initial convergence to 1.0D-05 achieved.  Increase integral accuracy.
 SCF Done:  E(UwB97XD) =  -371.472250060     A.U. after   20 cycles
            NFock= 20  Conv=0.32D-08     -V/T= 2.0039
 <Sx>= 0.0000 <Sy>= 0.0000 <Sz>= 0.0000 <S**2>=-0.0000 S=-0.0000
 <L.S>=  0.00000000000    
 Annihilation of the first spin contaminant:
 S**2 before annihilation    -0.0000,   after     0.0000
 DoSCS=F DFT=T ScalE2(SS,OS)=  1.000000  1.000000
 Range of M.O.s used for correlation:     1   229
 NBasis=   229 NAE=    25 NBE=    25 NFC=     0 NFV=     0
 NROrb=    229 NOA=    25 NOB=    25 NVA=   204 NVB=   204

 **** Warning!!: The largest alpha MO coefficient is  0.19612107D+02


 **** Warning!!: The largest beta MO coefficient is  0.19612107D+02

   1 Symmetry operations used in ECPInt.
 ECPInt:  NShTT=    3655 NPrTT=   11788 LenC2=    3438 LenP2D=    8599.
 LDataN:  DoStor=T MaxTD1= 7 Len=  274
 Symmetrizing basis deriv contribution to polar:
 IMax=3 JMax=2 DiffMx= 0.00D+00
 G2DrvN: will do    10 centers at a time, making    1 passes.
 Calling FoFCou, ICntrl=  3107 FMM=F I1Cent=   0 AccDes= 0.00D+00.
 End of G2Drv F.D. properties file   721 does not exist.
 End of G2Drv F.D. properties file   722 does not exist.
 End of G2Drv F.D. properties file   788 does not exist.
          IDoAtm=111111111
          Differentiating once with respect to nuclear coordinates.
 CalDSu exits because no D1Ps are significant.
          There are    30 degrees of freedom in the 1st order CPHF.  IDoFFX=6 NUNeed=     0.
     24 vectors produced by pass  0 Test12= 3.40D-14 3.33D-09 XBig12= 1.92D-01 1.88D-01.
 AX will form    24 AO Fock derivatives at one time.
     24 vectors produced by pass  1 Test12= 3.40D-14 3.33D-09 XBig12= 7.10D-02 5.29D-02.
     24 vectors produced by pass  2 Test12= 3.40D-14 3.33D-09 XBig12= 5.21D-03 1.39D-02.
     24 vectors produced by pass  3 Test12= 3.40D-14 3.33D-09 XBig12= 9.76D-05 1.74D-03.
     24 vectors produced by pass  4 Test12= 3.40D-14 3.33D-09 XBig12= 1.17D-06 1.55D-04.
     24 vectors produced by pass  5 Test12= 3.40D-14 3.33D-09 XBig12= 1.02D-08 1.51D-05.
     24 vectors produced by pass  6 Test12= 3.40D-14 3.33D-09 XBig12= 8.08D-11 1.26D-06.
     18 vectors produced by pass  7 Test12= 3.40D-14 3.33D-09 XBig12= 4.80D-13 8.48D-08.
      3 vectors produced by pass  8 Test12= 3.40D-14 3.33D-09 XBig12= 3.35D-15 7.70D-09.
 InvSVY:  IOpt=1 It=  1 EMax= 2.22D-15
 Solved reduced A of dimension   189 with    24 vectors.
 End of Minotr F.D. properties file   721 does not exist.
 End of Minotr F.D. properties file   722 does not exist.
 End of Minotr F.D. properties file   788 does not exist.

 **********************************************************************

            Population analysis using the SCF density.

 **********************************************************************

 Alpha  occ. eigenvalues --  -19.29805 -14.57528 -14.55193 -14.54994 -14.46030
 Alpha  occ. eigenvalues --  -10.38815 -10.38636  -1.26526  -1.24928  -1.07352
 Alpha  occ. eigenvalues --   -1.01876  -0.74566  -0.69176  -0.66121  -0.63078
 Alpha  occ. eigenvalues --   -0.61416  -0.59073  -0.57471  -0.57429  -0.53887
 Alpha  occ. eigenvalues --   -0.52790  -0.47240  -0.45794  -0.35548  -0.26635
 Alpha virt. eigenvalues --    0.01695   0.02888   0.04280   0.05495   0.10338
 Alpha virt. eigenvalues --    0.12435   0.14334   0.17567   0.21776   0.24568
 Alpha virt. eigenvalues --    0.26508   0.27272   0.28503   0.32863   0.34055
 Alpha virt. eigenvalues --    0.35308   0.36329   0.37143   0.39534   0.41552
 Alpha virt. eigenvalues --    0.42728   0.45248   0.45803   0.47135   0.49241
 Alpha virt. eigenvalues --    0.49681   0.50985   0.52483   0.53477   0.55506
 Alpha virt. eigenvalues --    0.56679   0.62936   0.63636   0.64768   0.67799
 Alpha virt. eigenvalues --    0.69453   0.71178   0.71487   0.75616   0.79256
 Alpha virt. eigenvalues --    0.82585   0.84178   0.88886   0.90128   0.90254
 Alpha virt. eigenvalues --    0.91887   0.94428   1.02157   1.06779   1.08567
 Alpha virt. eigenvalues --    1.10487   1.16151   1.16409   1.21599   1.22621
 Alpha virt. eigenvalues --    1.23579   1.26066   1.27870   1.33122   1.33917
 Alpha virt. eigenvalues --    1.36533   1.42287   1.43671   1.45047   1.46185
 Alpha virt. eigenvalues --    1.54176   1.54454   1.56697   1.60020   1.61513
 Alpha virt. eigenvalues --    1.62759   1.70255   1.72192   1.74185   1.75043
 Alpha virt. eigenvalues --    1.76241   1.79257   1.83925   1.92541   1.95544
 Alpha virt. eigenvalues --    1.98592   2.00036   2.02487   2.04551   2.06591
 Alpha virt. eigenvalues --    2.07590   2.08719   2.12203   2.17310   2.18586
 Alpha virt. eigenvalues --    2.19485   2.22958   2.27270   2.30434   2.33508
 Alpha virt. eigenvalues --    2.37104   2.39807   2.43039   2.54313   2.58959
 Alpha virt. eigenvalues --    2.61398   2.61452   2.64584   2.68944   2.78314
 Alpha virt. eigenvalues --    2.79446   2.82981   2.83400   2.86682   2.90829
 Alpha virt. eigenvalues --    2.92812   2.94099   2.95235   3.03360   3.04084
 Alpha virt. eigenvalues --    3.06176   3.10935   3.17433   3.19810   3.21530
 Alpha virt. eigenvalues --    3.29546   3.33368   3.39689   3.46188   3.53542
 Alpha virt. eigenvalues --    3.54233   3.54722   3.57229   3.59323   3.66665
 Alpha virt. eigenvalues --    3.66760   3.68696   3.71000   3.73296   3.75184
 Alpha virt. eigenvalues --    3.81591   3.96329   4.00652   4.03722   4.08413
 Alpha virt. eigenvalues --    4.10273   4.15766   4.15791   4.21931   4.23297
 Alpha virt. eigenvalues --    4.24010   4.31562   4.34419   4.42325   4.43479
 Alpha virt. eigenvalues --    4.52266   4.54205   4.55748   4.57241   4.58362
 Alpha virt. eigenvalues --    4.59897   4.60924   4.64543   4.65610   4.70856
 Alpha virt. eigenvalues --    4.73202   4.73994   4.84139   4.88532   4.98977
 Alpha virt. eigenvalues --    5.00620   5.00662   5.07939   5.07963   5.09354
 Alpha virt. eigenvalues --    5.09392   5.12868   5.21956   5.23172   5.23234
 Alpha virt. eigenvalues --    5.25378   5.36076   5.57519   5.58610   5.64411
 Alpha virt. eigenvalues --    5.69787   5.73006   5.76300   5.97323   6.05144
 Alpha virt. eigenvalues --    6.27090   6.34983   6.35096   6.36473   6.37208
 Alpha virt. eigenvalues --    6.61288   6.68281   6.77474   7.08437   7.17740
 Alpha virt. eigenvalues --    7.38064   7.64431  22.76328  23.05177  31.34653
 Alpha virt. eigenvalues --   32.14705  32.18255  32.68100  44.18142
  Beta  occ. eigenvalues --  -19.29805 -14.57528 -14.55193 -14.54994 -14.46030
  Beta  occ. eigenvalues --  -10.38815 -10.38636  -1.26526  -1.24928  -1.07352
  Beta  occ. eigenvalues --   -1.01876  -0.74566  -0.69176  -0.66121  -0.63078
  Beta  occ. eigenvalues --   -0.61416  -0.59073  -0.57471  -0.57429  -0.53887
  Beta  occ. eigenvalues --   -0.52790  -0.47240  -0.45794  -0.35548  -0.26635
  Beta virt. eigenvalues --    0.01695   0.02888   0.04280   0.05495   0.10338
  Beta virt. eigenvalues --    0.12435   0.14334   0.17567   0.21776   0.24568
  Beta virt. eigenvalues --    0.26508   0.27272   0.28503   0.32863   0.34055
  Beta virt. eigenvalues --    0.35308   0.36329   0.37143   0.39534   0.41552
  Beta virt. eigenvalues --    0.42728   0.45248   0.45803   0.47135   0.49241
  Beta virt. eigenvalues --    0.49681   0.50985   0.52483   0.53477   0.55506
  Beta virt. eigenvalues --    0.56679   0.62936   0.63636   0.64768   0.67799
  Beta virt. eigenvalues --    0.69453   0.71178   0.71487   0.75616   0.79256
  Beta virt. eigenvalues --    0.82585   0.84178   0.88886   0.90128   0.90254
  Beta virt. eigenvalues --    0.91887   0.94428   1.02157   1.06779   1.08567
  Beta virt. eigenvalues --    1.10487   1.16151   1.16409   1.21599   1.22621
  Beta virt. eigenvalues --    1.23579   1.26066   1.27870   1.33122   1.33917
  Beta virt. eigenvalues --    1.36533   1.42287   1.43671   1.45047   1.46185
  Beta virt. eigenvalues --    1.54176   1.54454   1.56697   1.60020   1.61513
  Beta virt. eigenvalues --    1.62759   1.70255   1.72192   1.74185   1.75043
  Beta virt. eigenvalues --    1.76241   1.79257   1.83925   1.92541   1.95544
  Beta virt. eigenvalues --    1.98592   2.00036   2.02487   2.04551   2.06591
  Beta virt. eigenvalues --    2.07590   2.08719   2.12203   2.17310   2.18586
  Beta virt. eigenvalues --    2.19485   2.22958   2.27270   2.30434   2.33508
  Beta virt. eigenvalues --    2.37104   2.39807   2.43039   2.54313   2.58959
  Beta virt. eigenvalues --    2.61398   2.61452   2.64584   2.68944   2.78314
  Beta virt. eigenvalues --    2.79446   2.82981   2.83400   2.86682   2.90829
  Beta virt. eigenvalues --    2.92812   2.94099   2.95235   3.03360   3.04084
  Beta virt. eigenvalues --    3.06176   3.10935   3.17433   3.19810   3.21530
  Beta virt. eigenvalues --    3.29546   3.33368   3.39689   3.46188   3.53542
  Beta virt. eigenvalues --    3.54233   3.54722   3.57229   3.59323   3.66665
  Beta virt. eigenvalues --    3.66760   3.68696   3.71000   3.73296   3.75184
  Beta virt. eigenvalues --    3.81591   3.96329   4.00652   4.03722   4.08413
  Beta virt. eigenvalues --    4.10273   4.15766   4.15791   4.21931   4.23297
  Beta virt. eigenvalues --    4.24010   4.31562   4.34419   4.42325   4.43479
  Beta virt. eigenvalues --    4.52266   4.54205   4.55748   4.57241   4.58362
  Beta virt. eigenvalues --    4.59897   4.60924   4.64543   4.65610   4.70856
  Beta virt. eigenvalues --    4.73202   4.73994   4.84139   4.88532   4.98977
  Beta virt. eigenvalues --    5.00620   5.00662   5.07939   5.07963   5.09354
  Beta virt. eigenvalues --    5.09392   5.12868   5.21956   5.23172   5.23234
  Beta virt. eigenvalues --    5.25378   5.36076   5.57519   5.58610   5.64411
  Beta virt. eigenvalues --    5.69787   5.73006   5.76300   5.97323   6.05144
  Beta virt. eigenvalues --    6.27090   6.34983   6.35096   6.36473   6.37208
  Beta virt. eigenvalues --    6.61288   6.68281   6.77474   7.08437   7.17740
  Beta virt. eigenvalues --    7.38064   7.64431  22.76328  23.05177  31.34653
  Beta virt. eigenvalues --   32.14705  32.18255  32.68100  44.18142
          Condensed to atoms (all electrons):
               1          2          3          4          5          6
     1  N    6.341937   0.621406  -0.001598   0.000307   0.004483  -0.020635
     2  C    0.621406   5.290862   0.001730  -0.001851  -0.003883  -0.061474
     3  N   -0.001598   0.001730   6.323658   0.660093  -0.000001  -0.000161
     4  N    0.000307  -0.001851   0.660093   6.352733  -0.000000   0.000014
     5  O    0.004483  -0.003883  -0.000001  -0.000000   8.050926   0.320503
     6  N   -0.020635  -0.061474  -0.000161   0.000014   0.320503   5.988588
     7  C   -0.058145   0.397619  -0.000204  -0.000090  -0.054358   0.550654
     8  H    0.365040  -0.109494  -0.000245   0.000421  -0.001345   0.008328
     9  H    0.010176  -0.100286   0.002485   0.000497   0.004576  -0.036473
               7          8          9
     1  N   -0.058145   0.365040   0.010176
     2  C    0.397619  -0.109494  -0.100286
     3  N   -0.000204  -0.000245   0.002485
     4  N   -0.000090   0.000421   0.000497
     5  O   -0.054358  -0.001345   0.004576
     6  N    0.550654   0.008328  -0.036473
     7  C    4.848475   0.004002   0.343336
     8  H    0.004002   0.466186   0.001990
     9  H    0.343336   0.001990   0.641808
          Atomic-Atomic Spin Densities.
               1          2          3          4          5          6
     1  N    0.000000  -0.000000   0.000000  -0.000000   0.000000  -0.000000
     2  C   -0.000000   0.000000   0.000000  -0.000000   0.000000   0.000000
     3  N    0.000000   0.000000  -0.000000   0.000000  -0.000000  -0.000000
     4  N   -0.000000  -0.000000   0.000000  -0.000000   0.000000  -0.000000
     5  O    0.000000   0.000000  -0.000000   0.000000   0.000000  -0.000000
     6  N   -0.000000   0.000000  -0.000000  -0.000000  -0.000000   0.000000
     7  C    0.000000  -0.000000  -0.000000   0.000000  -0.000000  -0.000000
     8  H   -0.000000   0.000000   0.000000  -0.000000   0.000000  -0.000000
     9  H   -0.000000  -0.000000  -0.000000  -0.000000  -0.000000  -0.000000
               7          8          9
     1  N    0.000000  -0.000000  -0.000000
     2  C   -0.000000   0.000000  -0.000000
     3  N   -0.000000   0.000000  -0.000000
     4  N    0.000000  -0.000000  -0.000000
     5  O   -0.000000   0.000000  -0.000000
     6  N   -0.000000  -0.000000  -0.000000
     7  C    0.000000   0.000000   0.000000
     8  H    0.000000  -0.000000   0.000000
     9  H    0.000000   0.000000   0.000000
 Mulliken charges and spin densities:
               1          2
     1  N   -0.262969  -0.000000
     2  C   -0.034628  -0.000000
     3  N    0.014244   0.000000
     4  N   -0.012123  -0.000000
     5  O   -0.320900  -0.000000
     6  N    0.250655   0.000000
     7  C   -0.031287  -0.000000
     8  H    0.265117   0.000000
     9  H    0.131891   0.000000
 Sum of Mulliken charges =  -0.00000   0.00000
 Mulliken charges and spin densities with hydrogens summed into heavy atoms:
               1          2
     1  N    0.002148  -0.000000
     2  C   -0.034628  -0.000000
     3  N    0.014244   0.000000
     4  N   -0.012123  -0.000000
     5  O   -0.320900  -0.000000
     6  N    0.250655   0.000000
     7  C    0.100604  -0.000000
 APT charges:
               1
     1  N   -0.289139
     2  C   -0.372404
     3  N   -1.287613
     4  N    1.289843
     5  O    0.109143
     6  N    0.167967
     7  C   -0.551435
     8  H    0.594503
     9  H    0.339135
 Sum of APT charges =  -0.00000
 APT charges with hydrogens summed into heavy atoms:
               1
     1  N    0.305364
     2  C   -0.372404
     3  N   -1.287613
     4  N    1.289843
     5  O    0.109143
     6  N    0.167967
     7  C   -0.212299
 Electronic spatial extent (au):  <R**2>=           1130.0729
 Charge=             -0.0000 electrons
 Dipole moment (field-independent basis, Debye):
    X=             -3.8387    Y=             -0.5933    Z=              0.0000  Tot=              3.8843
 Quadrupole moment (field-independent basis, Debye-Ang):
   XX=            -48.6454   YY=            -35.6308   ZZ=            -38.3283
   XY=             -1.9743   XZ=             -0.0000   YZ=              0.0000
 Traceless Quadrupole moment (field-independent basis, Debye-Ang):
   XX=             -7.7772   YY=              5.2373   ZZ=              2.5399
   XY=             -1.9743   XZ=             -0.0000   YZ=              0.0000
 Octapole moment (field-independent basis, Debye-Ang**2):
  XXX=            -25.0948  YYY=              2.3649  ZZZ=             -0.0002  XYY=             -7.8230
  XXY=             -3.6685  XXZ=             -0.0001  XZZ=              0.5269  YZZ=             -1.0142
  YYZ=              0.0001  XYZ=              0.0000
 Hexadecapole moment (field-independent basis, Debye-Ang**3):
 XXXX=          -1258.1565 YYYY=           -202.9780 ZZZZ=            -35.3046 XXXY=             26.0043
 XXXZ=              0.0003 YYYX=            -22.2533 YYYZ=              0.0002 ZZZX=              0.0001
 ZZZY=              0.0000 XXYY=           -230.8996 XXZZ=           -186.9105 YYZZ=            -46.2845
 XXYZ=              0.0000 YYXZ=              0.0000 ZZXY=             -1.7504
 N-N= 2.329705536795D+02 E-N=-1.335279301902D+03  KE= 3.700400911604D+02
  Exact polarizability:   0.000   0.000   0.000   0.000   0.000   0.000
 Approx polarizability: 111.910 -25.713  82.247  -0.000   0.000  35.392
                          Isotropic Fermi Contact Couplings
        Atom                 a.u.       MegaHertz       Gauss      10(-4) cm-1
     1  N(14)              0.00000       0.00000       0.00000       0.00000
     2  C(13)              0.00000       0.00000       0.00000       0.00000
     3  N(14)              0.00000       0.00000       0.00000       0.00000
     4  N(14)             -0.00000      -0.00000      -0.00000      -0.00000
     5  O(17)              0.00000      -0.00000      -0.00000      -0.00000
     6  N(14)              0.00000       0.00000       0.00000       0.00000
     7  C(13)             -0.00000      -0.00000      -0.00000      -0.00000
     8  H(1)              -0.00000      -0.00000      -0.00000      -0.00000
     9  H(1)              -0.00000      -0.00000      -0.00000      -0.00000
 --------------------------------------------------------
       Center         ----  Spin Dipole Couplings  ----
                      3XX-RR        3YY-RR        3ZZ-RR
 --------------------------------------------------------
     1   Atom       -0.000000      0.000000      0.000000
     2   Atom        0.000000     -0.000000     -0.000000
     3   Atom       -0.000000      0.000000      0.000000
     4   Atom       -0.000000      0.000000      0.000000
     5   Atom        0.000000     -0.000000     -0.000000
     6   Atom        0.000000     -0.000000     -0.000000
     7   Atom       -0.000000      0.000000     -0.000000
     8   Atom       -0.000000     -0.000000      0.000000
     9   Atom        0.000000      0.000000     -0.000000
 --------------------------------------------------------
                        XY            XZ            YZ
 --------------------------------------------------------
     1   Atom       -0.000000     -0.000000     -0.000000
     2   Atom       -0.000000      0.000000     -0.000000
     3   Atom        0.000000      0.000000      0.000000
     4   Atom        0.000000      0.000000     -0.000000
     5   Atom       -0.000000     -0.000000     -0.000000
     6   Atom       -0.000000     -0.000000     -0.000000
     7   Atom       -0.000000      0.000000      0.000000
     8   Atom        0.000000     -0.000000      0.000000
     9   Atom        0.000000      0.000000      0.000000
 --------------------------------------------------------


 ---------------------------------------------------------------------------------
              Anisotropic Spin Dipole Couplings in Principal Axis System
 ---------------------------------------------------------------------------------

       Atom             a.u.   MegaHertz   Gauss  10(-4) cm-1        Axes

              Baa    -0.0000    -0.000    -0.000    -0.000  0.9973  0.0737  0.0037
     1 N(14)  Bbb     0.0000     0.000     0.000     0.000 -0.0052  0.0198  0.9998
              Bcc     0.0000     0.000     0.000     0.000 -0.0736  0.9971 -0.0201
 
              Baa    -0.0000    -0.000    -0.000    -0.000  0.3348  0.9423 -0.0063
     2 C(13)  Bbb    -0.0000    -0.000    -0.000    -0.000 -0.0062  0.0089  0.9999
              Bcc     0.0000     0.000     0.000     0.000  0.9423 -0.3348  0.0088
 
              Baa    -0.0000    -0.000    -0.000    -0.000  0.9654 -0.2609 -0.0005
     3 N(14)  Bbb     0.0000     0.000     0.000     0.000  0.2609  0.9654 -0.0038
              Bcc     0.0000     0.000     0.000     0.000  0.0015  0.0036  1.0000
 
              Baa    -0.0000    -0.000    -0.000    -0.000  0.8728 -0.4881 -0.0001
     4 N(14)  Bbb     0.0000     0.000     0.000     0.000 -0.0001 -0.0004  1.0000
              Bcc     0.0000     0.000     0.000     0.000  0.4881  0.8728  0.0003
 
              Baa    -0.0000     0.000     0.000     0.000  0.1415  0.9899  0.0024
     5 O(17)  Bbb    -0.0000     0.000     0.000     0.000  0.0001 -0.0025  1.0000
              Bcc     0.0000    -0.000    -0.000    -0.000  0.9899 -0.1415 -0.0005
 
              Baa    -0.0000    -0.000    -0.000    -0.000  0.0138  0.0072  0.9999
     6 N(14)  Bbb    -0.0000    -0.000    -0.000    -0.000  0.1312  0.9913 -0.0090
              Bcc     0.0000     0.000     0.000     0.000  0.9913 -0.1313 -0.0128
 
              Baa    -0.0000    -0.000    -0.000    -0.000 -0.0173 -0.0050  0.9998
     7 C(13)  Bbb    -0.0000    -0.000    -0.000    -0.000  0.9972  0.0721  0.0176
              Bcc     0.0000     0.000     0.000     0.000 -0.0722  0.9974  0.0037
 
              Baa    -0.0000    -0.000    -0.000    -0.000 -0.7030  0.7112 -0.0081
     8 H(1)   Bbb     0.0000     0.000     0.000     0.000  0.7110  0.7030  0.0169
              Bcc     0.0000     0.000     0.000     0.000 -0.0176 -0.0061  0.9998
 
              Baa    -0.0000    -0.000    -0.000    -0.000  0.4230 -0.4930  0.7603
     9 H(1)   Bbb    -0.0000    -0.000    -0.000    -0.000 -0.5020  0.5710  0.6495
              Bcc     0.0000     0.000     0.000     0.000  0.7544  0.6564  0.0060
 

 ---------------------------------------------------------------------------------

   1 Symmetry operations used in ECPInt.
 ECPInt:  NShTT=    3655 NPrTT=   11788 LenC2=    3438 LenP2D=    8599.
 LDataN:  DoStor=T MaxTD1= 8 Len=  415
 Calling FoFJK, ICntrl=    100147 FMM=F ISym2X=0 I1Cent= 0 IOpClX= 1 NMat=1 NMatS=1 NMatT=0.
 -------------------------------------------------------------------
 Center     Atomic                   Forces (Hartrees/Bohr)
 Number     Number              X              Y              Z
 -------------------------------------------------------------------
      1        7           0.000001947    0.000014768    0.000000263
      2        6           0.000153760    0.000080614   -0.000000649
      3        7          -0.000060492   -0.000087626    0.000000022
      4        7           0.000007015    0.000015036   -0.000000009
      5        8          -0.000022936    0.000024119   -0.000001490
      6        7          -0.000015219   -0.000013437    0.000002817
      7        6           0.000007827   -0.000045124   -0.000000938
      8        1          -0.000013734    0.000001716    0.000000043
      9        1          -0.000058168    0.000009934   -0.000000058
 -------------------------------------------------------------------
 Cartesian Forces:  Max     0.000153760 RMS     0.000042721
 IRC-IRC-IRC-IRC-IRC-IRC-IRC-IRC-IRC-IRC-IRC-IRC-IRC-IRC-IRC-IRC-IRC-IRC
          ******** Start new reaction path calculation ********
 Supplied step size of   0.0500 bohr.
    Integration on MW PES will use step size of   0.1525 sqrt(amu)*bohr.
 Point Number:   0          Path Number:   1
 Calculating another point on the path.
 IRC-IRC-IRC-IRC-IRC-IRC-IRC-IRC-IRC-IRC-IRC-IRC-IRC-IRC-IRC-IRC-IRC-IRC
                          Input orientation:                          
 ---------------------------------------------------------------------
 Center     Atomic      Atomic             Coordinates (Angstroms)
 Number     Number       Type             X           Y           Z
 ---------------------------------------------------------------------
      1          7           0        0.513781    1.784906   -0.000001
      2          6           0        0.310853    0.580830    0.000008
      3          7           0       -2.775405   -0.614041   -0.000001
      4          7           0       -3.687552   -0.021340   -0.000001
      5          8           0        2.992552   -0.400513   -0.000001
      6          7           0        1.800820   -0.556268   -0.000011
      7          6           0        0.569531   -0.797647    0.000009
      8          1           0       -0.295545    2.397249    0.000008
      9          1           0       -0.042299   -1.702142    0.000020
 ---------------------------------------------------------------------
                    Distance matrix (angstroms):
                    1          2          3          4          5
     1  N    0.000000
     2  C    1.221056   0.000000
     3  N    4.071080   3.309487   0.000000
     4  N    4.573153   4.043495   1.087799   0.000000
     5  O    3.304597   2.855617   5.771908   6.690857   0.000000
     6  N    2.671622   1.874298   4.576589   5.514379   1.201867
     7  C    2.583155   1.402538   3.349971   4.327287   2.455351
     8  H    1.014875   1.914966   3.900971   4.165968   4.317297
     9  H    3.531109   2.310126   2.941739   4.014096   3.302206
                    6          7          8          9
     6  N    0.000000
     7  C    1.254726   0.000000
     8  H    3.621878   3.309942   0.000000
     9  H    2.170281   1.091993   4.107206   0.000000
 Symmetry turned off by external request.
 Stoichiometry    C2H2N4O
 Framework group  C1[X(C2H2N4O)]
 Deg. of freedom    21
 Full point group                 C1      NOp   1
 Rotational constants (GHZ):           6.5471166           1.0193836           0.8820489
 Standard basis: def2TZVP (5D, 7F)
   229 basis functions,   373 primitive gaussians,   264 cartesian basis functions
    25 alpha electrons       25 beta electrons
       nuclear repulsion energy       233.0595219791 Hartrees.
 NAtoms=    9 NActive=    9 NUniq=    9 SFac= 1.00D+00 NAtFMM=   60 NAOKFM=F Big=F
 Integral buffers will be    131072 words long.
 Raffenetti 2 integral format.
 Two-electron integral symmetry is turned off.
 Nuclear repulsion after empirical dispersion term =      233.0572197356 Hartrees.
 One-electron integrals computed using PRISM.
   1 Symmetry operations used in ECPInt.
 ECPInt:  NShTT=    3655 NPrTT=   11788 LenC2=    3439 LenP2D=    8602.
 LDataN:  DoStor=T MaxTD1= 6 Len=  172
 NBasis=   229 RedAO= T EigKep=  1.36D-04  NBF=   229
 NBsUse=   229 1.00D-06 EigRej= -1.00D+00 NBFU=   229
 Initial guess from the checkpoint file:  "/scratch/23935644/Gau-21632.chk"
 B after Tr=    -0.005808    0.012959   -0.000002
         Rot=    1.000000    0.000000    0.000000   -0.000023 Ang=   0.00 deg.
 Initial guess <Sx>= 0.0000 <Sy>= 0.0000 <Sz>= 0.0000 <S**2>= 0.0000 S= 0.0000
 ExpMin= 9.52D-02 ExpMax= 2.70D+04 ExpMxC= 9.22D+02 IAcc=2 IRadAn=         4 AccDes= 0.00D+00
 Harris functional with IExCor= 4639 and IRadAn=       4 diagonalized for initial guess.
 HarFok:  IExCor= 4639 AccDes= 0.00D+00 IRadAn=         4 IDoV= 1 UseB2=F ITyADJ=14
 ICtDFT=  3500011 ScaDFX=  1.000000  1.000000  1.000000  1.000000
 FoFCou: FMM=F IPFlag=           0 FMFlag=      100000 FMFlg1=           0
         NFxFlg=           0 DoJE=T BraDBF=F KetDBF=T FulRan=T
         wScrn=  0.000000 ICntrl=       500 IOpCl=  0 I1Cent=   200000004 NGrid=           0
         NMat0=    1 NMatS0=      1 NMatT0=    0 NMatD0=    1 NMtDS0=    0 NMtDT0=    0
 Symmetry not used in FoFCou.
 Requested convergence on RMS density matrix=1.00D-08 within 128 cycles.
 Requested convergence on MAX density matrix=1.00D-06.
 Requested convergence on             energy=1.00D-06.
 No special actions if energy rises.
 Integral accuracy reduced to 1.0D-05 until final iterations.
 Initial convergence to 1.0D-05 achieved.  Increase integral accuracy.
 SCF Done:  E(UwB97XD) =  -371.472453882     A.U. after   15 cycles
            NFock= 15  Conv=0.38D-08     -V/T= 2.0039
 <Sx>= 0.0000 <Sy>= 0.0000 <Sz>= 0.0000 <S**2>=-0.0000 S=-0.0000
 <L.S>=  0.00000000000    
 Annihilation of the first spin contaminant:
 S**2 before annihilation    -0.0000,   after    -0.0000
 DoSCS=F DFT=T ScalE2(SS,OS)=  1.000000  1.000000
 Range of M.O.s used for correlation:     1   229
 NBasis=   229 NAE=    25 NBE=    25 NFC=     0 NFV=     0
 NROrb=    229 NOA=    25 NOB=    25 NVA=   204 NVB=   204

 **** Warning!!: The largest alpha MO coefficient is  0.19608295D+02


 **** Warning!!: The largest beta MO coefficient is  0.19608295D+02

 Symmetrizing basis deriv contribution to polar:
 IMax=3 JMax=2 DiffMx= 0.00D+00
   1 Symmetry operations used in ECPInt.
 ECPInt:  NShTT=    3655 NPrTT=   11788 LenC2=    3439 LenP2D=    8602.
 LDataN:  DoStor=T MaxTD1= 7 Len=  274
 Calling FoFJK, ICntrl=      2147 FMM=F ISym2X=0 I1Cent= 0 IOpClX= 1 NMat=1 NMatS=1 NMatT=0.
 -------------------------------------------------------------------
 Center     Atomic                   Forces (Hartrees/Bohr)
 Number     Number              X              Y              Z
 -------------------------------------------------------------------
      1        7          -0.001624387    0.000199513    0.000000318
      2        6           0.005002594   -0.001016909   -0.000000812
      3        7          -0.000053446   -0.000051374    0.000000023
      4        7          -0.000004612    0.000006461   -0.000000010
      5        8          -0.000275316   -0.003206046   -0.000001477
      6        7          -0.001602990    0.006692701    0.000002823
      7        6          -0.001122289   -0.002132750   -0.000000877
      8        1          -0.000304203   -0.000318078    0.000000027
      9        1          -0.000015352   -0.000173517   -0.000000016
 -------------------------------------------------------------------
 Cartesian Forces:  Max     0.006692701 RMS     0.001850852
 IRC-IRC-IRC-IRC-IRC-IRC-IRC-IRC-IRC-IRC-IRC-IRC-IRC-IRC-IRC-IRC-IRC-IRC
 Pt  1 Step number   1 out of a maximum of  20
 Modified Bulirsch-Stoer Extrapolation Cycles:
    EPS =    0.000010000000000
      PEZero:  N= 2 I= 1 D=  3.97D-04 Err=  7.92D-04
      PEZero:  N= 3 I= 2 D=  3.97D-04 Err=  5.28D-04
      PEZero:  N= 3 I= 1 D=  7.94D-04 Err=  1.81D-07
 Maximum DWI energy   std dev =  0.000001693 at pt    25
 Maximum DWI gradient std dev =  0.073620132 at pt     1
 CORRECTOR INTEGRATION CONVERGENCE:
   Recorrection delta-x convergence threshold:    0.010000
   Delta-x Convergence Met
 Point Number:   1          Path Number:   1
   CHANGE IN THE REACTION COORDINATE =    0.15247
   NET REACTION COORDINATE UP TO THIS POINT =    0.15247
  # OF POINTS ALONG THE PATH =   1
  # OF STEPS =   1

 Calculating another point on the path.
 IRC-IRC-IRC-IRC-IRC-IRC-IRC-IRC-IRC-IRC-IRC-IRC-IRC-IRC-IRC-IRC-IRC-IRC
                          Input orientation:                          
 ---------------------------------------------------------------------
 Center     Atomic      Atomic             Coordinates (Angstroms)
 Number     Number       Type             X           Y           Z
 ---------------------------------------------------------------------
      1          7           0        0.510471    1.785601   -0.000000
      2          6           0        0.323484    0.577678    0.000006
      3          7           0       -2.775534   -0.614172   -0.000001
      4          7           0       -3.687564   -0.021318   -0.000001
      5          8           0        2.992419   -0.406487   -0.000004
      6          7           0        1.796768   -0.541910   -0.000006
      7          6           0        0.566758   -0.802701    0.000007
      8          1           0       -0.306059    2.388561    0.000008
      9          1           0       -0.042870   -1.708666    0.000019
 ---------------------------------------------------------------------
                    Distance matrix (angstroms):
                    1          2          3          4          5
     1  N    0.000000
     2  C    1.222311   0.000000
     3  N    4.068998   3.320304   0.000000
     4  N    4.570389   4.055527   1.087784   0.000000
     5  O    3.311392   2.844608   5.771691   6.691078   0.000000
     6  N    2.659298   1.850417   4.572873   5.508985   1.203296
     7  C    2.588914   1.401651   3.347605   4.325484   2.457807
     8  H    1.015028   1.917191   3.887764   4.152360   4.323453
     9  H    3.537808   2.315509   2.943700   4.016334   3.302825
                    6          7          8          9
     6  N    0.000000
     7  C    1.257353   0.000000
     8  H    3.606874   3.308468   0.000000
     9  H    2.178437   1.091979   4.105671   0.000000
 Symmetry turned off by external request.
 Stoichiometry    C2H2N4O
 Framework group  C1[X(C2H2N4O)]
 Deg. of freedom    21
 Full point group                 C1      NOp   1
 Rotational constants (GHZ):           6.5533336           1.0197704           0.8824513
 Standard basis: def2TZVP (5D, 7F)
   229 basis functions,   373 primitive gaussians,   264 cartesian basis functions
    25 alpha electrons       25 beta electrons
       nuclear repulsion energy       233.1465055024 Hartrees.
 NAtoms=    9 NActive=    9 NUniq=    9 SFac= 1.00D+00 NAtFMM=   60 NAOKFM=F Big=F
 Integral buffers will be    131072 words long.
 Raffenetti 2 integral format.
 Two-electron integral symmetry is turned off.
 Nuclear repulsion after empirical dispersion term =      233.1442039498 Hartrees.
 One-electron integrals computed using PRISM.
   1 Symmetry operations used in ECPInt.
 ECPInt:  NShTT=    3655 NPrTT=   11788 LenC2=    3440 LenP2D=    8606.
 LDataN:  DoStor=T MaxTD1= 6 Len=  172
 NBasis=   229 RedAO= T EigKep=  1.31D-04  NBF=   229
 NBsUse=   229 1.00D-06 EigRej= -1.00D+00 NBFU=   229
 Initial guess from the checkpoint file:  "/scratch/23935644/Gau-21632.chk"
 B after Tr=    -0.000208   -0.000288   -0.000000
         Rot=    1.000000   -0.000000    0.000000   -0.000023 Ang=  -0.00 deg.
 Initial guess <Sx>= 0.0000 <Sy>= 0.0000 <Sz>= 0.0000 <S**2>=-0.0000 S=-0.0000
 ExpMin= 9.52D-02 ExpMax= 2.70D+04 ExpMxC= 9.22D+02 IAcc=2 IRadAn=         4 AccDes= 0.00D+00
 Harris functional with IExCor= 4639 and IRadAn=       4 diagonalized for initial guess.
 HarFok:  IExCor= 4639 AccDes= 0.00D+00 IRadAn=         4 IDoV= 1 UseB2=F ITyADJ=14
 ICtDFT=  3500011 ScaDFX=  1.000000  1.000000  1.000000  1.000000
 FoFCou: FMM=F IPFlag=           0 FMFlag=      100000 FMFlg1=           0
         NFxFlg=           0 DoJE=T BraDBF=F KetDBF=T FulRan=T
         wScrn=  0.000000 ICntrl=       500 IOpCl=  0 I1Cent=   200000004 NGrid=           0
         NMat0=    1 NMatS0=      1 NMatT0=    0 NMatD0=    1 NMtDS0=    0 NMtDT0=    0
 Symmetry not used in FoFCou.
 Requested convergence on RMS density matrix=1.00D-08 within 128 cycles.
 Requested convergence on MAX density matrix=1.00D-06.
 Requested convergence on             energy=1.00D-06.
 No special actions if energy rises.
 Integral accuracy reduced to 1.0D-05 until final iterations.
 Initial convergence to 1.0D-05 achieved.  Increase integral accuracy.
 SCF Done:  E(UwB97XD) =  -371.473060826     A.U. after   15 cycles
            NFock= 15  Conv=0.75D-08     -V/T= 2.0039
 <Sx>= 0.0000 <Sy>= 0.0000 <Sz>= 0.0000 <S**2>=-0.0000 S=-0.0000
 <L.S>=  0.00000000000    
 Annihilation of the first spin contaminant:
 S**2 before annihilation    -0.0000,   after     0.0000
 DoSCS=F DFT=T ScalE2(SS,OS)=  1.000000  1.000000
 Range of M.O.s used for correlation:     1   229
 NBasis=   229 NAE=    25 NBE=    25 NFC=     0 NFV=     0
 NROrb=    229 NOA=    25 NOB=    25 NVA=   204 NVB=   204

 **** Warning!!: The largest alpha MO coefficient is  0.19604177D+02


 **** Warning!!: The largest beta MO coefficient is  0.19604177D+02

 Symmetrizing basis deriv contribution to polar:
 IMax=3 JMax=2 DiffMx= 0.00D+00
   1 Symmetry operations used in ECPInt.
 ECPInt:  NShTT=    3655 NPrTT=   11788 LenC2=    3440 LenP2D=    8606.
 LDataN:  DoStor=T MaxTD1= 7 Len=  274
 Calling FoFJK, ICntrl=      2147 FMM=F ISym2X=0 I1Cent= 0 IOpClX= 1 NMat=1 NMatS=1 NMatT=0.
 -------------------------------------------------------------------
 Center     Atomic                   Forces (Hartrees/Bohr)
 Number     Number              X              Y              Z
 -------------------------------------------------------------------
      1        7          -0.003278939    0.000361192    0.000000272
      2        6           0.010059014   -0.002131408   -0.000000593
      3        7          -0.000047762   -0.000018261    0.000000018
      4        7          -0.000018461   -0.000000433   -0.000000009
      5        8          -0.000698606   -0.006296733   -0.000000783
      6        7          -0.003197789    0.013242658    0.000001454
      7        6          -0.002333967   -0.004141250   -0.000000261
      8        1          -0.000575741   -0.000653987   -0.000000038
      9        1           0.000092251   -0.000361778   -0.000000061
 -------------------------------------------------------------------
 Cartesian Forces:  Max     0.013242658 RMS     0.003680973
 IRC-IRC-IRC-IRC-IRC-IRC-IRC-IRC-IRC-IRC-IRC-IRC-IRC-IRC-IRC-IRC-IRC-IRC
 Pt  2 Step number   1 out of a maximum of  20
 Modified Bulirsch-Stoer Extrapolation Cycles:
    EPS =    0.000010000000000
      PEZero:  N= 2 I= 1 D=  7.94D-04 Err=  9.14D-06
 Maximum DWI energy   std dev =  0.000000363 at pt    32
 Maximum DWI gradient std dev =  0.024551805 at pt    27
 CORRECTOR INTEGRATION CONVERGENCE:
   Recorrection delta-x convergence threshold:    0.010000
   Delta-x Convergence Met
 Point Number:   2          Path Number:   1
   CHANGE IN THE REACTION COORDINATE =    0.15243
   NET REACTION COORDINATE UP TO THIS POINT =    0.30490
  # OF POINTS ALONG THE PATH =   2
  # OF STEPS =   1

 Calculating another point on the path.
 IRC-IRC-IRC-IRC-IRC-IRC-IRC-IRC-IRC-IRC-IRC-IRC-IRC-IRC-IRC-IRC-IRC-IRC
                          Input orientation:                          
 ---------------------------------------------------------------------
 Center     Atomic      Atomic             Coordinates (Angstroms)
 Number     Number       Type             X           Y           Z
 ---------------------------------------------------------------------
      1          7           0        0.507027    1.786135   -0.000000
      2          6           0        0.336355    0.574578    0.000006
      3          7           0       -2.775575   -0.614178   -0.000001
      4          7           0       -3.687585   -0.021319   -0.000001
      5          8           0        2.991949   -0.412358   -0.000004
      6          7           0        1.792875   -0.527658   -0.000005
      7          6           0        0.563974   -0.807730    0.000007
      8          1           0       -0.316339    2.379742    0.000007
      9          1           0       -0.042536   -1.715407    0.000018
 ---------------------------------------------------------------------
                    Distance matrix (angstroms):
                    1          2          3          4          5
     1  N    0.000000
     2  C    1.223520   0.000000
     3  N    4.066569   3.331253   0.000000
     4  N    4.567457   4.067823   1.087770   0.000000
     5  O    3.317862   2.833059   5.771054   6.690970   0.000000
     6  N    2.647082   1.826574   4.569269   5.503800   1.204605
     7  C    2.594491   1.400923   3.345153   4.323678   2.459956
     8  H    1.015037   1.919538   3.874454   4.138888   4.329041
     9  H    3.544407   2.321119   2.946559   4.019492   3.302429
                    6          7          8          9
     6  N    0.000000
     7  C    1.260412   0.000000
     8  H    3.591901   3.306800   0.000000
     9  H    2.186203   1.091665   4.104292   0.000000
 Symmetry turned off by external request.
 Stoichiometry    C2H2N4O
 Framework group  C1[X(C2H2N4O)]
 Deg. of freedom    21
 Full point group                 C1      NOp   1
 Rotational constants (GHZ):           6.5596966           1.0202100           0.8828959
 Standard basis: def2TZVP (5D, 7F)
   229 basis functions,   373 primitive gaussians,   264 cartesian basis functions
    25 alpha electrons       25 beta electrons
       nuclear repulsion energy       233.2403485629 Hartrees.
 NAtoms=    9 NActive=    9 NUniq=    9 SFac= 1.00D+00 NAtFMM=   60 NAOKFM=F Big=F
 Integral buffers will be    131072 words long.
 Raffenetti 2 integral format.
 Two-electron integral symmetry is turned off.
 Nuclear repulsion after empirical dispersion term =      233.2380477124 Hartrees.
 One-electron integrals computed using PRISM.
   1 Symmetry operations used in ECPInt.
 ECPInt:  NShTT=    3655 NPrTT=   11788 LenC2=    3440 LenP2D=    8606.
 LDataN:  DoStor=T MaxTD1= 6 Len=  172
 NBasis=   229 RedAO= T EigKep=  1.26D-04  NBF=   229
 NBsUse=   229 1.00D-06 EigRej= -1.00D+00 NBFU=   229
 Initial guess from the checkpoint file:  "/scratch/23935644/Gau-21632.chk"
 B after Tr=    -0.000188   -0.000297   -0.000000
         Rot=    1.000000   -0.000000    0.000000   -0.000024 Ang=  -0.00 deg.
 Initial guess <Sx>= 0.0000 <Sy>= 0.0000 <Sz>= 0.0000 <S**2>= 0.0000 S= 0.0000
 ExpMin= 9.52D-02 ExpMax= 2.70D+04 ExpMxC= 9.22D+02 IAcc=2 IRadAn=         4 AccDes= 0.00D+00
 Harris functional with IExCor= 4639 and IRadAn=       4 diagonalized for initial guess.
 HarFok:  IExCor= 4639 AccDes= 0.00D+00 IRadAn=         4 IDoV= 1 UseB2=F ITyADJ=14
 ICtDFT=  3500011 ScaDFX=  1.000000  1.000000  1.000000  1.000000
 FoFCou: FMM=F IPFlag=           0 FMFlag=      100000 FMFlg1=           0
         NFxFlg=           0 DoJE=T BraDBF=F KetDBF=T FulRan=T
         wScrn=  0.000000 ICntrl=       500 IOpCl=  0 I1Cent=   200000004 NGrid=           0
         NMat0=    1 NMatS0=      1 NMatT0=    0 NMatD0=    1 NMtDS0=    0 NMtDT0=    0
 Symmetry not used in FoFCou.
 Requested convergence on RMS density matrix=1.00D-08 within 128 cycles.
 Requested convergence on MAX density matrix=1.00D-06.
 Requested convergence on             energy=1.00D-06.
 No special actions if energy rises.
 Integral accuracy reduced to 1.0D-05 until final iterations.
 Initial convergence to 1.0D-05 achieved.  Increase integral accuracy.
 SCF Done:  E(UwB97XD) =  -371.474066137     A.U. after   15 cycles
            NFock= 15  Conv=0.84D-08     -V/T= 2.0040
 <Sx>= 0.0000 <Sy>= 0.0000 <Sz>= 0.0000 <S**2>=-0.0000 S=-0.0000
 <L.S>=  0.00000000000    
 Annihilation of the first spin contaminant:
 S**2 before annihilation    -0.0000,   after     0.0000
 DoSCS=F DFT=T ScalE2(SS,OS)=  1.000000  1.000000
 Range of M.O.s used for correlation:     1   229
 NBasis=   229 NAE=    25 NBE=    25 NFC=     0 NFV=     0
 NROrb=    229 NOA=    25 NOB=    25 NVA=   204 NVB=   204

 **** Warning!!: The largest alpha MO coefficient is  0.19599646D+02


 **** Warning!!: The largest beta MO coefficient is  0.19599646D+02

 Symmetrizing basis deriv contribution to polar:
 IMax=3 JMax=2 DiffMx= 0.00D+00
   1 Symmetry operations used in ECPInt.
 ECPInt:  NShTT=    3655 NPrTT=   11788 LenC2=    3440 LenP2D=    8606.
 LDataN:  DoStor=T MaxTD1= 7 Len=  274
 Calling FoFJK, ICntrl=      2147 FMM=F ISym2X=0 I1Cent= 0 IOpClX= 1 NMat=1 NMatS=1 NMatT=0.
 -------------------------------------------------------------------
 Center     Atomic                   Forces (Hartrees/Bohr)
 Number     Number              X              Y              Z
 -------------------------------------------------------------------
      1        7          -0.004876513    0.000525891    0.000000272
      2        6           0.015258379   -0.003244584   -0.000000581
      3        7          -0.000046937    0.000008835    0.000000016
      4        7          -0.000030815   -0.000006242   -0.000000008
      5        8          -0.001187508   -0.009129236   -0.000000607
      6        7          -0.004950841    0.019417764    0.000001141
      7        6          -0.003373189   -0.006043103   -0.000000149
      8        1          -0.000906301   -0.000948075   -0.000000048
      9        1           0.000113727   -0.000581249   -0.000000037
 -------------------------------------------------------------------
 Cartesian Forces:  Max     0.019417764 RMS     0.005455842
 IRC-IRC-IRC-IRC-IRC-IRC-IRC-IRC-IRC-IRC-IRC-IRC-IRC-IRC-IRC-IRC-IRC-IRC
 Pt  3 Step number   1 out of a maximum of  20
 Modified Bulirsch-Stoer Extrapolation Cycles:
    EPS =    0.000010000000000
      PEZero:  N= 2 I= 1 D=  7.94D-04 Err=  1.38D-05
      PEZero:  N= 3 I= 2 D=  7.94D-04 Err=  9.22D-06
      PEZero:  N= 3 I= 1 D=  1.59D-03 Err=  2.78D-08
 Maximum DWI energy   std dev =  0.000000412 at pt    30
 Maximum DWI gradient std dev =  0.015046670 at pt    28
 CORRECTOR INTEGRATION CONVERGENCE:
   Recorrection delta-x convergence threshold:    0.010000
   Delta-x Convergence Met
 Point Number:   3          Path Number:   1
   CHANGE IN THE REACTION COORDINATE =    0.15245
   NET REACTION COORDINATE UP TO THIS POINT =    0.45735
  # OF POINTS ALONG THE PATH =   3
  # OF STEPS =   1

 Calculating another point on the path.
 IRC-IRC-IRC-IRC-IRC-IRC-IRC-IRC-IRC-IRC-IRC-IRC-IRC-IRC-IRC-IRC-IRC-IRC
                          Input orientation:                          
 ---------------------------------------------------------------------
 Center     Atomic      Atomic             Coordinates (Angstroms)
 Number     Number       Type             X           Y           Z
 ---------------------------------------------------------------------
      1          7           0        0.503525    1.786601   -0.000000
      2          6           0        0.349515    0.571581    0.000005
      3          7           0       -2.775605   -0.614166   -0.000001
      4          7           0       -3.687609   -0.021325   -0.000001
      5          8           0        2.991227   -0.418116   -0.000004
      6          7           0        1.789054   -0.513568   -0.000005
      7          6           0        0.561185   -0.812743    0.000007
      8          1           0       -0.326561    2.370735    0.000007
      9          1           0       -0.041945   -1.722114    0.000017
 ---------------------------------------------------------------------
                    Distance matrix (angstroms):
                    1          2          3          4          5
     1  N    0.000000
     2  C    1.224742   0.000000
     3  N    4.064035   3.342510   0.000000
     4  N    4.564450   4.080430   1.087755   0.000000
     5  O    3.324069   2.821018   5.770163   6.690612   0.000000
     6  N    2.635026   1.802726   4.565768   5.498740   1.205956
     7  C    2.599984   1.400414   3.342694   4.321873   2.461876
     8  H    1.015016   1.921988   3.861017   4.125360   4.334214
     9  H    3.550861   2.326860   2.949652   4.022878   3.301596
                    6          7          8          9
     6  N    0.000000
     7  C    1.263791   0.000000
     8  H    3.577015   3.304940   0.000000
     9  H    2.193887   1.091201   4.102734   0.000000
 Symmetry turned off by external request.
 Stoichiometry    C2H2N4O
 Framework group  C1[X(C2H2N4O)]
 Deg. of freedom    21
 Full point group                 C1      NOp   1
 Rotational constants (GHZ):           6.5656439           1.0206797           0.8833554
 Standard basis: def2TZVP (5D, 7F)
   229 basis functions,   373 primitive gaussians,   264 cartesian basis functions
    25 alpha electrons       25 beta electrons
       nuclear repulsion energy       233.3353207327 Hartrees.
 NAtoms=    9 NActive=    9 NUniq=    9 SFac= 1.00D+00 NAtFMM=   60 NAOKFM=F Big=F
 Integral buffers will be    131072 words long.
 Raffenetti 2 integral format.
 Two-electron integral symmetry is turned off.
 Nuclear repulsion after empirical dispersion term =      233.3330205169 Hartrees.
 One-electron integrals computed using PRISM.
   1 Symmetry operations used in ECPInt.
 ECPInt:  NShTT=    3655 NPrTT=   11788 LenC2=    3440 LenP2D=    8604.
 LDataN:  DoStor=T MaxTD1= 6 Len=  172
 NBasis=   229 RedAO= T EigKep=  1.21D-04  NBF=   229
 NBsUse=   229 1.00D-06 EigRej= -1.00D+00 NBFU=   229
 Initial guess from the checkpoint file:  "/scratch/23935644/Gau-21632.chk"
 B after Tr=    -0.000181   -0.000299   -0.000000
         Rot=    1.000000    0.000000    0.000000   -0.000025 Ang=  -0.00 deg.
 Initial guess <Sx>= 0.0000 <Sy>= 0.0000 <Sz>= 0.0000 <S**2>=-0.0000 S=-0.0000
 ExpMin= 9.52D-02 ExpMax= 2.70D+04 ExpMxC= 9.22D+02 IAcc=2 IRadAn=         4 AccDes= 0.00D+00
 Harris functional with IExCor= 4639 and IRadAn=       4 diagonalized for initial guess.
 HarFok:  IExCor= 4639 AccDes= 0.00D+00 IRadAn=         4 IDoV= 1 UseB2=F ITyADJ=14
 ICtDFT=  3500011 ScaDFX=  1.000000  1.000000  1.000000  1.000000
 FoFCou: FMM=F IPFlag=           0 FMFlag=      100000 FMFlg1=           0
         NFxFlg=           0 DoJE=T BraDBF=F KetDBF=T FulRan=T
         wScrn=  0.000000 ICntrl=       500 IOpCl=  0 I1Cent=   200000004 NGrid=           0
         NMat0=    1 NMatS0=      1 NMatT0=    0 NMatD0=    1 NMtDS0=    0 NMtDT0=    0
 Symmetry not used in FoFCou.
 Requested convergence on RMS density matrix=1.00D-08 within 128 cycles.
 Requested convergence on MAX density matrix=1.00D-06.
 Requested convergence on             energy=1.00D-06.
 No special actions if energy rises.
 Integral accuracy reduced to 1.0D-05 until final iterations.
 Initial convergence to 1.0D-05 achieved.  Increase integral accuracy.
 SCF Done:  E(UwB97XD) =  -371.475455330     A.U. after   15 cycles
            NFock= 15  Conv=0.63D-08     -V/T= 2.0040
 <Sx>= 0.0000 <Sy>= 0.0000 <Sz>= 0.0000 <S**2>=-0.0000 S=-0.0000
 <L.S>=  0.00000000000    
 Annihilation of the first spin contaminant:
 S**2 before annihilation    -0.0000,   after     0.0000
 DoSCS=F DFT=T ScalE2(SS,OS)=  1.000000  1.000000
 Range of M.O.s used for correlation:     1   229
 NBasis=   229 NAE=    25 NBE=    25 NFC=     0 NFV=     0
 NROrb=    229 NOA=    25 NOB=    25 NVA=   204 NVB=   204

 **** Warning!!: The largest alpha MO coefficient is  0.19594945D+02


 **** Warning!!: The largest beta MO coefficient is  0.19594945D+02

 Symmetrizing basis deriv contribution to polar:
 IMax=3 JMax=2 DiffMx= 0.00D+00
   1 Symmetry operations used in ECPInt.
 ECPInt:  NShTT=    3655 NPrTT=   11788 LenC2=    3440 LenP2D=    8604.
 LDataN:  DoStor=T MaxTD1= 7 Len=  274
 Calling FoFJK, ICntrl=      2147 FMM=F ISym2X=0 I1Cent= 0 IOpClX= 1 NMat=1 NMatS=1 NMatT=0.
 -------------------------------------------------------------------
 Center     Atomic                   Forces (Hartrees/Bohr)
 Number     Number              X              Y              Z
 -------------------------------------------------------------------
      1        7          -0.006441145    0.000639555    0.000000256
      2        6           0.020484475   -0.004220803   -0.000000572
      3        7          -0.000056733    0.000027496    0.000000015
      4        7          -0.000043870   -0.000009190   -0.000000008
      5        8          -0.001964598   -0.011673416   -0.000000494
      6        7          -0.006552768    0.025094466    0.000000951
      7        6          -0.004359682   -0.007810673   -0.000000076
      8        1          -0.001217245   -0.001255111   -0.000000045
      9        1           0.000151565   -0.000792324   -0.000000027
 -------------------------------------------------------------------
 Cartesian Forces:  Max     0.025094466 RMS     0.007138453
 IRC-IRC-IRC-IRC-IRC-IRC-IRC-IRC-IRC-IRC-IRC-IRC-IRC-IRC-IRC-IRC-IRC-IRC
 Pt  4 Step number   1 out of a maximum of  20
 Modified Bulirsch-Stoer Extrapolation Cycles:
    EPS =    0.000010000000000
      PEZero:  N= 2 I= 1 D=  7.94D-04 Err=  1.54D-05
      PEZero:  N= 3 I= 2 D=  7.94D-04 Err=  1.02D-05
      PEZero:  N= 3 I= 1 D=  1.59D-03 Err=  2.58D-08
 Maximum DWI energy   std dev =  0.000000953 at pt    36
 Maximum DWI gradient std dev =  0.010960226 at pt    28
 CORRECTOR INTEGRATION CONVERGENCE:
   Recorrection delta-x convergence threshold:    0.010000
   Delta-x Convergence Met
 Point Number:   4          Path Number:   1
   CHANGE IN THE REACTION COORDINATE =    0.15245
   NET REACTION COORDINATE UP TO THIS POINT =    0.60980
  # OF POINTS ALONG THE PATH =   4
  # OF STEPS =   1

 Calculating another point on the path.
 IRC-IRC-IRC-IRC-IRC-IRC-IRC-IRC-IRC-IRC-IRC-IRC-IRC-IRC-IRC-IRC-IRC-IRC
                          Input orientation:                          
 ---------------------------------------------------------------------
 Center     Atomic      Atomic             Coordinates (Angstroms)
 Number     Number       Type             X           Y           Z
 ---------------------------------------------------------------------
      1          7           0        0.499978    1.787003    0.000000
      2          6           0        0.363002    0.568693    0.000005
      3          7           0       -2.775637   -0.614150   -0.000001
      4          7           0       -3.687635   -0.021329   -0.000001
      5          8           0        2.990234   -0.423734   -0.000005
      6          7           0        1.785293   -0.499680   -0.000004
      7          6           0        0.558399   -0.817725    0.000007
      8          1           0       -0.336795    2.361418    0.000006
      9          1           0       -0.041093   -1.728795    0.000017
 ---------------------------------------------------------------------
                    Distance matrix (angstroms):
                    1          2          3          4          5
     1  N    0.000000
     2  C    1.225986   0.000000
     3  N    4.061427   3.354128   0.000000
     4  N    4.561378   4.093384   1.087740   0.000000
     5  O    3.329976   2.808427   5.769015   6.689983   0.000000
     6  N    2.623157   1.778857   4.562366   5.493793   1.207332
     7  C    2.605383   1.400120   3.340245   4.320076   2.463544
     8  H    1.014959   1.924468   3.847331   4.111643   4.338917
     9  H    3.557189   2.332755   2.952992   4.026501   3.300323
                    6          7          8          9
     6  N    0.000000
     7  C    1.267447   0.000000
     8  H    3.562182   3.302775   0.000000
     9  H    2.201457   1.090614   4.100888   0.000000
 Symmetry turned off by external request.
 Stoichiometry    C2H2N4O
 Framework group  C1[X(C2H2N4O)]
 Deg. of freedom    21
 Full point group                 C1      NOp   1
 Rotational constants (GHZ):           6.5712058           1.0211806           0.8838312
 Standard basis: def2TZVP (5D, 7F)
   229 basis functions,   373 primitive gaussians,   264 cartesian basis functions
    25 alpha electrons       25 beta electrons
       nuclear repulsion energy       233.4328886799 Hartrees.
 NAtoms=    9 NActive=    9 NUniq=    9 SFac= 1.00D+00 NAtFMM=   60 NAOKFM=F Big=F
 Integral buffers will be    131072 words long.
 Raffenetti 2 integral format.
 Two-electron integral symmetry is turned off.
 Nuclear repulsion after empirical dispersion term =      233.4305890285 Hartrees.
 One-electron integrals computed using PRISM.
   1 Symmetry operations used in ECPInt.
 ECPInt:  NShTT=    3655 NPrTT=   11788 LenC2=    3439 LenP2D=    8602.
 LDataN:  DoStor=T MaxTD1= 6 Len=  172
 NBasis=   229 RedAO= T EigKep=  1.16D-04  NBF=   229
 NBsUse=   229 1.00D-06 EigRej= -1.00D+00 NBFU=   229
 Initial guess from the checkpoint file:  "/scratch/23935644/Gau-21632.chk"
 B after Tr=    -0.000176   -0.000304   -0.000000
         Rot=    1.000000    0.000000    0.000000   -0.000025 Ang=  -0.00 deg.
 Initial guess <Sx>= 0.0000 <Sy>= 0.0000 <Sz>= 0.0000 <S**2>=-0.0000 S=-0.0000
 ExpMin= 9.52D-02 ExpMax= 2.70D+04 ExpMxC= 9.22D+02 IAcc=2 IRadAn=         4 AccDes= 0.00D+00
 Harris functional with IExCor= 4639 and IRadAn=       4 diagonalized for initial guess.
 HarFok:  IExCor= 4639 AccDes= 0.00D+00 IRadAn=         4 IDoV= 1 UseB2=F ITyADJ=14
 ICtDFT=  3500011 ScaDFX=  1.000000  1.000000  1.000000  1.000000
 FoFCou: FMM=F IPFlag=           0 FMFlag=      100000 FMFlg1=           0
         NFxFlg=           0 DoJE=T BraDBF=F KetDBF=T FulRan=T
         wScrn=  0.000000 ICntrl=       500 IOpCl=  0 I1Cent=   200000004 NGrid=           0
         NMat0=    1 NMatS0=      1 NMatT0=    0 NMatD0=    1 NMtDS0=    0 NMtDT0=    0
 Symmetry not used in FoFCou.
 Requested convergence on RMS density matrix=1.00D-08 within 128 cycles.
 Requested convergence on MAX density matrix=1.00D-06.
 Requested convergence on             energy=1.00D-06.
 No special actions if energy rises.
 Integral accuracy reduced to 1.0D-05 until final iterations.
 Initial convergence to 1.0D-05 achieved.  Increase integral accuracy.
 SCF Done:  E(UwB97XD) =  -371.477204746     A.U. after   15 cycles
            NFock= 15  Conv=0.51D-08     -V/T= 2.0040
 <Sx>= 0.0000 <Sy>= 0.0000 <Sz>= 0.0000 <S**2>=-0.0000 S=-0.0000
 <L.S>=  0.00000000000    
 Annihilation of the first spin contaminant:
 S**2 before annihilation    -0.0000,   after     0.0000
 DoSCS=F DFT=T ScalE2(SS,OS)=  1.000000  1.000000
 Range of M.O.s used for correlation:     1   229
 NBasis=   229 NAE=    25 NBE=    25 NFC=     0 NFV=     0
 NROrb=    229 NOA=    25 NOB=    25 NVA=   204 NVB=   204

 **** Warning!!: The largest alpha MO coefficient is  0.19590142D+02


 **** Warning!!: The largest beta MO coefficient is  0.19590142D+02

 Symmetrizing basis deriv contribution to polar:
 IMax=3 JMax=2 DiffMx= 0.00D+00
   1 Symmetry operations used in ECPInt.
 ECPInt:  NShTT=    3655 NPrTT=   11788 LenC2=    3439 LenP2D=    8602.
 LDataN:  DoStor=T MaxTD1= 7 Len=  274
 Calling FoFJK, ICntrl=      2147 FMM=F ISym2X=0 I1Cent= 0 IOpClX= 1 NMat=1 NMatS=1 NMatT=0.
 -------------------------------------------------------------------
 Center     Atomic                   Forces (Hartrees/Bohr)
 Number     Number              X              Y              Z
 -------------------------------------------------------------------
      1        7          -0.007915204    0.000686652    0.000000243
      2        6           0.025596423   -0.005018176   -0.000000570
      3        7          -0.000072189    0.000038720    0.000000014
      4        7          -0.000059943   -0.000007744   -0.000000008
      5        8          -0.002996074   -0.013858286   -0.000000412
      6        7          -0.007998292    0.030115460    0.000000819
      7        6          -0.005245103   -0.009397432   -0.000000027
      8        1          -0.001507305   -0.001571705   -0.000000041
      9        1           0.000197687   -0.000987488   -0.000000019
 -------------------------------------------------------------------
 Cartesian Forces:  Max     0.030115460 RMS     0.008685903
 IRC-IRC-IRC-IRC-IRC-IRC-IRC-IRC-IRC-IRC-IRC-IRC-IRC-IRC-IRC-IRC-IRC-IRC
 Pt  5 Step number   1 out of a maximum of  20
 Modified Bulirsch-Stoer Extrapolation Cycles:
    EPS =    0.000010000000000
      PEZero:  N= 2 I= 1 D=  7.94D-04 Err=  1.61D-05
      PEZero:  N= 3 I= 2 D=  7.94D-04 Err=  1.07D-05
      PEZero:  N= 3 I= 1 D=  1.59D-03 Err=  2.39D-08
 Maximum DWI energy   std dev =  0.000001552 at pt    36
 Maximum DWI gradient std dev =  0.008675982 at pt    38
 CORRECTOR INTEGRATION CONVERGENCE:
   Recorrection delta-x convergence threshold:    0.010000
   Delta-x Convergence Met
 Point Number:   5          Path Number:   1
   CHANGE IN THE REACTION COORDINATE =    0.15245
   NET REACTION COORDINATE UP TO THIS POINT =    0.76225
  # OF POINTS ALONG THE PATH =   5
  # OF STEPS =   1

 Calculating another point on the path.
 IRC-IRC-IRC-IRC-IRC-IRC-IRC-IRC-IRC-IRC-IRC-IRC-IRC-IRC-IRC-IRC-IRC-IRC
                          Input orientation:                          
 ---------------------------------------------------------------------
 Center     Atomic      Atomic             Coordinates (Angstroms)
 Number     Number       Type             X           Y           Z
 ---------------------------------------------------------------------
      1          7           0        0.496395    1.787341    0.000000
      2          6           0        0.376827    0.565927    0.000005
      3          7           0       -2.775671   -0.614133   -0.000001
      4          7           0       -3.687664   -0.021332   -0.000001
      5          8           0        2.988962   -0.429203   -0.000005
      6          7           0        1.781575   -0.486015   -0.000004
      7          6           0        0.555632   -0.822662    0.000007
      8          1           0       -0.347076    2.351706    0.000006
      9          1           0       -0.040020   -1.735440    0.000017
 ---------------------------------------------------------------------
                    Distance matrix (angstroms):
                    1          2          3          4          5
     1  N    0.000000
     2  C    1.227253   0.000000
     3  N    4.058756   3.366124   0.000000
     4  N    4.558251   4.106697   1.087724   0.000000
     5  O    3.335560   2.795270   5.767599   6.689073   0.000000
     6  N    2.611482   1.754964   4.559047   5.488944   1.208724
     7  C    2.610675   1.400053   3.337823   4.318297   2.464936
     8  H    1.014865   1.926925   3.833311   4.097662   4.343110
     9  H    3.563387   2.338814   2.956538   4.030320   3.298634
                    6          7          8          9
     6  N    0.000000
     7  C    1.271325   0.000000
     8  H    3.547367   3.300226   0.000000
     9  H    2.208907   1.089938   4.098664   0.000000
 Symmetry turned off by external request.
 Stoichiometry    C2H2N4O
 Framework group  C1[X(C2H2N4O)]
 Deg. of freedom    21
 Full point group                 C1      NOp   1
 Rotational constants (GHZ):           6.5764384           1.0217144           0.8843257
 Standard basis: def2TZVP (5D, 7F)
   229 basis functions,   373 primitive gaussians,   264 cartesian basis functions
    25 alpha electrons       25 beta electrons
       nuclear repulsion energy       233.5343870261 Hartrees.
 NAtoms=    9 NActive=    9 NUniq=    9 SFac= 1.00D+00 NAtFMM=   60 NAOKFM=F Big=F
 Integral buffers will be    131072 words long.
 Raffenetti 2 integral format.
 Two-electron integral symmetry is turned off.
 Nuclear repulsion after empirical dispersion term =      233.5320878547 Hartrees.
 One-electron integrals computed using PRISM.
   1 Symmetry operations used in ECPInt.
 ECPInt:  NShTT=    3655 NPrTT=   11788 LenC2=    3440 LenP2D=    8605.
 LDataN:  DoStor=T MaxTD1= 6 Len=  172
 NBasis=   229 RedAO= T EigKep=  1.12D-04  NBF=   229
 NBsUse=   229 1.00D-06 EigRej= -1.00D+00 NBFU=   229
 Initial guess from the checkpoint file:  "/scratch/23935644/Gau-21632.chk"
 B after Tr=    -0.000173   -0.000310   -0.000000
         Rot=    1.000000    0.000000    0.000000   -0.000025 Ang=  -0.00 deg.
 Initial guess <Sx>= 0.0000 <Sy>= 0.0000 <Sz>= 0.0000 <S**2>=-0.0000 S=-0.0000
 ExpMin= 9.52D-02 ExpMax= 2.70D+04 ExpMxC= 9.22D+02 IAcc=2 IRadAn=         4 AccDes= 0.00D+00
 Harris functional with IExCor= 4639 and IRadAn=       4 diagonalized for initial guess.
 HarFok:  IExCor= 4639 AccDes= 0.00D+00 IRadAn=         4 IDoV= 1 UseB2=F ITyADJ=14
 ICtDFT=  3500011 ScaDFX=  1.000000  1.000000  1.000000  1.000000
 FoFCou: FMM=F IPFlag=           0 FMFlag=      100000 FMFlg1=           0
         NFxFlg=           0 DoJE=T BraDBF=F KetDBF=T FulRan=T
         wScrn=  0.000000 ICntrl=       500 IOpCl=  0 I1Cent=   200000004 NGrid=           0
         NMat0=    1 NMatS0=      1 NMatT0=    0 NMatD0=    1 NMtDS0=    0 NMtDT0=    0
 Symmetry not used in FoFCou.
 Requested convergence on RMS density matrix=1.00D-08 within 128 cycles.
 Requested convergence on MAX density matrix=1.00D-06.
 Requested convergence on             energy=1.00D-06.
 No special actions if energy rises.
 Integral accuracy reduced to 1.0D-05 until final iterations.
 Initial convergence to 1.0D-05 achieved.  Increase integral accuracy.
 SCF Done:  E(UwB97XD) =  -371.479281207     A.U. after   14 cycles
            NFock= 14  Conv=0.81D-08     -V/T= 2.0040
 <Sx>= 0.0000 <Sy>= 0.0000 <Sz>= 0.0000 <S**2>=-0.0000 S=-0.0000
 <L.S>=  0.00000000000    
 Annihilation of the first spin contaminant:
 S**2 before annihilation    -0.0000,   after     0.0000
 DoSCS=F DFT=T ScalE2(SS,OS)=  1.000000  1.000000
 Range of M.O.s used for correlation:     1   229
 NBasis=   229 NAE=    25 NBE=    25 NFC=     0 NFV=     0
 NROrb=    229 NOA=    25 NOB=    25 NVA=   204 NVB=   204

 **** Warning!!: The largest alpha MO coefficient is  0.20581968D+02


 **** Warning!!: The largest beta MO coefficient is  0.20581968D+02

 Symmetrizing basis deriv contribution to polar:
 IMax=3 JMax=2 DiffMx= 0.00D+00
   1 Symmetry operations used in ECPInt.
 ECPInt:  NShTT=    3655 NPrTT=   11788 LenC2=    3440 LenP2D=    8605.
 LDataN:  DoStor=T MaxTD1= 7 Len=  274
 Calling FoFJK, ICntrl=      2147 FMM=F ISym2X=0 I1Cent= 0 IOpClX= 1 NMat=1 NMatS=1 NMatT=0.
 -------------------------------------------------------------------
 Center     Atomic                   Forces (Hartrees/Bohr)
 Number     Number              X              Y              Z
 -------------------------------------------------------------------
      1        7          -0.009243854    0.000665425    0.000000230
      2        6           0.030404530   -0.005616703   -0.000000568
      3        7          -0.000067335    0.000049921    0.000000014
      4        7          -0.000076870   -0.000005030   -0.000000008
      5        8          -0.004245865   -0.015626490   -0.000000348
      6        7          -0.009269826    0.034333796    0.000000720
      7        6          -0.005981205   -0.010744740    0.000000009
      8        1          -0.001774675   -0.001896852   -0.000000035
      9        1           0.000255100   -0.001159327   -0.000000014
 -------------------------------------------------------------------
 Cartesian Forces:  Max     0.034333796 RMS     0.010052127
 IRC-IRC-IRC-IRC-IRC-IRC-IRC-IRC-IRC-IRC-IRC-IRC-IRC-IRC-IRC-IRC-IRC-IRC
 Pt  6 Step number   1 out of a maximum of  20
 Modified Bulirsch-Stoer Extrapolation Cycles:
    EPS =    0.000010000000000
      PEZero:  N= 2 I= 1 D=  7.94D-04 Err=  1.61D-05
      PEZero:  N= 3 I= 2 D=  7.94D-04 Err=  1.07D-05
      PEZero:  N= 3 I= 1 D=  1.59D-03 Err=  2.48D-08
 Maximum DWI energy   std dev =  0.000002182 at pt    36
 Maximum DWI gradient std dev =  0.007269800 at pt    38
 CORRECTOR INTEGRATION CONVERGENCE:
   Recorrection delta-x convergence threshold:    0.010000
   Delta-x Convergence Met
 Point Number:   6          Path Number:   1
   CHANGE IN THE REACTION COORDINATE =    0.15245
   NET REACTION COORDINATE UP TO THIS POINT =    0.91470
  # OF POINTS ALONG THE PATH =   6
  # OF STEPS =   1

 Calculating another point on the path.
 IRC-IRC-IRC-IRC-IRC-IRC-IRC-IRC-IRC-IRC-IRC-IRC-IRC-IRC-IRC-IRC-IRC-IRC
                          Input orientation:                          
 ---------------------------------------------------------------------
 Center     Atomic      Atomic             Coordinates (Angstroms)
 Number     Number       Type             X           Y           Z
 ---------------------------------------------------------------------
      1          7           0        0.492784    1.787612    0.000000
      2          6           0        0.390979    0.563288    0.000005
      3          7           0       -2.775696   -0.614111   -0.000001
      4          7           0       -3.687693   -0.021335   -0.000001
      5          8           0        2.987399   -0.434517   -0.000005
      6          7           0        1.777883   -0.472590   -0.000004
      7          6           0        0.552906   -0.827539    0.000007
      8          1           0       -0.357462    2.341488    0.000006
      9          1           0       -0.038714   -1.742054    0.000017
 ---------------------------------------------------------------------
                    Distance matrix (angstroms):
                    1          2          3          4          5
     1  N    0.000000
     2  C    1.228549   0.000000
     3  N    4.056011   3.378475   0.000000
     4  N    4.555071   4.120358   1.087714   0.000000
     5  O    3.340802   2.781548   5.765892   6.687867   0.000000
     6  N    2.599999   1.731053   4.555777   5.484173   1.210115
     7  C    2.615842   1.400222   3.335437   4.316554   2.466014
     8  H    1.014740   1.929290   3.818824   4.083303   4.346757
     9  H    3.569458   2.345045   2.960291   4.034342   3.296515
                    6          7          8          9
     6  N    0.000000
     7  C    1.275366   0.000000
     8  H    3.532525   3.297196   0.000000
     9  H    2.216205   1.089197   4.095963   0.000000
 Symmetry turned off by external request.
 Stoichiometry    C2H2N4O
 Framework group  C1[X(C2H2N4O)]
 Deg. of freedom    21
 Full point group                 C1      NOp   1
 Rotational constants (GHZ):           6.5814398           1.0222865           0.8848447
 Standard basis: def2TZVP (5D, 7F)
   229 basis functions,   373 primitive gaussians,   264 cartesian basis functions
    25 alpha electrons       25 beta electrons
       nuclear repulsion energy       233.6414216322 Hartrees.
 NAtoms=    9 NActive=    9 NUniq=    9 SFac= 1.00D+00 NAtFMM=   60 NAOKFM=F Big=F
 Integral buffers will be    131072 words long.
 Raffenetti 2 integral format.
 Two-electron integral symmetry is turned off.
 Nuclear repulsion after empirical dispersion term =      233.6391228313 Hartrees.
 One-electron integrals computed using PRISM.
   1 Symmetry operations used in ECPInt.
 ECPInt:  NShTT=    3655 NPrTT=   11788 LenC2=    3440 LenP2D=    8606.
 LDataN:  DoStor=T MaxTD1= 6 Len=  172
 NBasis=   229 RedAO= T EigKep=  1.09D-04  NBF=   229
 NBsUse=   229 1.00D-06 EigRej= -1.00D+00 NBFU=   229
 Initial guess from the checkpoint file:  "/scratch/23935644/Gau-21632.chk"
 B after Tr=    -0.000170   -0.000319   -0.000000
         Rot=    1.000000    0.000000    0.000000   -0.000025 Ang=  -0.00 deg.
 Initial guess <Sx>= 0.0000 <Sy>= 0.0000 <Sz>= 0.0000 <S**2>=-0.0000 S=-0.0000
 ExpMin= 9.52D-02 ExpMax= 2.70D+04 ExpMxC= 9.22D+02 IAcc=2 IRadAn=         4 AccDes= 0.00D+00
 Harris functional with IExCor= 4639 and IRadAn=       4 diagonalized for initial guess.
 HarFok:  IExCor= 4639 AccDes= 0.00D+00 IRadAn=         4 IDoV= 1 UseB2=F ITyADJ=14
 ICtDFT=  3500011 ScaDFX=  1.000000  1.000000  1.000000  1.000000
 FoFCou: FMM=F IPFlag=           0 FMFlag=      100000 FMFlg1=           0
         NFxFlg=           0 DoJE=T BraDBF=F KetDBF=T FulRan=T
         wScrn=  0.000000 ICntrl=       500 IOpCl=  0 I1Cent=   200000004 NGrid=           0
         NMat0=    1 NMatS0=      1 NMatT0=    0 NMatD0=    1 NMtDS0=    0 NMtDT0=    0
 Symmetry not used in FoFCou.
 Requested convergence on RMS density matrix=1.00D-08 within 128 cycles.
 Requested convergence on MAX density matrix=1.00D-06.
 Requested convergence on             energy=1.00D-06.
 No special actions if energy rises.
 Integral accuracy reduced to 1.0D-05 until final iterations.
 Initial convergence to 1.0D-05 achieved.  Increase integral accuracy.
 SCF Done:  E(UwB97XD) =  -371.481642141     A.U. after   14 cycles
            NFock= 14  Conv=0.74D-08     -V/T= 2.0041
 <Sx>= 0.0000 <Sy>= 0.0000 <Sz>= 0.0000 <S**2>=-0.0000 S=-0.0000
 <L.S>=  0.00000000000    
[...]
 Framework group  C1[X(C2H2N4O)]
 Deg. of freedom    21
 Full point group                 C1      NOp   1
 Rotational constants (GHZ):           6.6727231           1.0318970           0.8936927
 Standard basis: def2TZVP (5D, 7F)
   229 basis functions,   373 primitive gaussians,   264 cartesian basis functions
    25 alpha electrons       25 beta electrons
       nuclear repulsion energy       236.5092735689 Hartrees.
 NAtoms=    9 NActive=    9 NUniq=    9 SFac= 1.00D+00 NAtFMM=   60 NAOKFM=F Big=F
 Integral buffers will be    131072 words long.
 Raffenetti 2 integral format.
 Two-electron integral symmetry is turned off.
 Nuclear repulsion after empirical dispersion term =      236.5069336906 Hartrees.
 One-electron integrals computed using PRISM.
   1 Symmetry operations used in ECPInt.
 ECPInt:  NShTT=    3655 NPrTT=   11788 LenC2=    3444 LenP2D=    8636.
 LDataN:  DoStor=T MaxTD1= 6 Len=  172
 NBasis=   229 RedAO= T EigKep=  8.21D-05  NBF=   229
 NBsUse=   229 1.00D-06 EigRej= -1.00D+00 NBFU=   229
 Initial guess from the checkpoint file:  "/scratch/23935644/Gau-21632.chk"
 B after Tr=     0.000150    0.000391    0.000000
         Rot=    1.000000    0.000000   -0.000000    0.000042 Ang=   0.00 deg.
 Initial guess <Sx>= 0.0000 <Sy>= 0.0000 <Sz>= 0.0000 <S**2>=-0.0000 S=-0.0000
 ExpMin= 9.52D-02 ExpMax= 2.70D+04 ExpMxC= 9.22D+02 IAcc=2 IRadAn=         4 AccDes= 0.00D+00
 Harris functional with IExCor= 4639 and IRadAn=       4 diagonalized for initial guess.
 HarFok:  IExCor= 4639 AccDes= 0.00D+00 IRadAn=         4 IDoV= 1 UseB2=F ITyADJ=14
 ICtDFT=  3500011 ScaDFX=  1.000000  1.000000  1.000000  1.000000
 FoFCou: FMM=F IPFlag=           0 FMFlag=      100000 FMFlg1=           0
         NFxFlg=           0 DoJE=T BraDBF=F KetDBF=T FulRan=T
         wScrn=  0.000000 ICntrl=       500 IOpCl=  0 I1Cent=   200000004 NGrid=           0
         NMat0=    1 NMatS0=      1 NMatT0=    0 NMatD0=    1 NMtDS0=    0 NMtDT0=    0
 Symmetry not used in FoFCou.
 Requested convergence on RMS density matrix=1.00D-08 within 128 cycles.
 Requested convergence on MAX density matrix=1.00D-06.
 Requested convergence on             energy=1.00D-06.
 No special actions if energy rises.
 Integral accuracy reduced to 1.0D-05 until final iterations.
 Initial convergence to 1.0D-05 achieved.  Increase integral accuracy.
 SCF Done:  E(UwB97XD) =  -371.512886215     A.U. after   12 cycles
            NFock= 12  Conv=0.45D-08     -V/T= 2.0039
 <Sx>= 0.0000 <Sy>= 0.0000 <Sz>= 0.0000 <S**2>=-0.0000 S=-0.0000
 <L.S>=  0.00000000000    
 Annihilation of the first spin contaminant:
 S**2 before annihilation    -0.0000,   after     0.0000
 DoSCS=F DFT=T ScalE2(SS,OS)=  1.000000  1.000000
 Range of M.O.s used for correlation:     1   229
 NBasis=   229 NAE=    25 NBE=    25 NFC=     0 NFV=     0
 NROrb=    229 NOA=    25 NOB=    25 NVA=   204 NVB=   204

 **** Warning!!: The largest alpha MO coefficient is  0.24568095D+02


 **** Warning!!: The largest beta MO coefficient is  0.24568095D+02

 Symmetrizing basis deriv contribution to polar:
 IMax=3 JMax=2 DiffMx= 0.00D+00
   1 Symmetry operations used in ECPInt.
 ECPInt:  NShTT=    3655 NPrTT=   11788 LenC2=    3444 LenP2D=    8636.
 LDataN:  DoStor=T MaxTD1= 7 Len=  274
 Calling FoFJK, ICntrl=      2147 FMM=F ISym2X=0 I1Cent= 0 IOpClX= 1 NMat=1 NMatS=1 NMatT=0.
 -------------------------------------------------------------------
 Center     Atomic                   Forces (Hartrees/Bohr)
 Number     Number              X              Y              Z
 -------------------------------------------------------------------
      1        7          -0.001242323   -0.001984856   -0.000000006
      2        6           0.000032009    0.005257312    0.000000021
      3        7          -0.000239684   -0.000054213    0.000000007
      4        7          -0.000154550    0.000103234   -0.000000005
      5        8          -0.000714891   -0.003324078   -0.000000041
      6        7           0.003612595   -0.001466782    0.000000063
      7        6           0.001134552    0.002199288   -0.000000022
      8        1          -0.002351634   -0.000703386   -0.000000001
      9        1          -0.000076074   -0.000026520   -0.000000016
 -------------------------------------------------------------------
 Cartesian Forces:  Max     0.005257312 RMS     0.001634542
 IRC-IRC-IRC-IRC-IRC-IRC-IRC-IRC-IRC-IRC-IRC-IRC-IRC-IRC-IRC-IRC-IRC-IRC
 Error in corrector energy =          -0.0000612575
 Magnitude of corrector gradient =     0.0084658415
 Magnitude of analytic gradient =      0.0084933303
 Magnitude of difference =             0.0088467515
 Angle between gradients (degrees)=   62.8857
 Pt 22 Step number  18 out of a maximum of  20
 Modified Bulirsch-Stoer Extrapolation Cycles:
    EPS =    0.000010000000000
      PEZero:  N= 2 I= 1 D=  7.85D-04 Err=  4.62D-04
      PEZero:  N= 3 I= 2 D=  7.85D-04 Err=  3.07D-04
      PEZero:  N= 3 I= 1 D=  1.57D-03 Err=  1.15D-06
 Maximum DWI energy   std dev =  0.000023768 at pt    -1
 Maximum DWI gradient std dev =  0.278679450 at pt    -1
 CORRECTOR INTEGRATION CONVERGENCE:
   Recorrection delta-x convergence threshold:    0.010000
   Delta-x Convergence NOT Met
 IRC-IRC-IRC-IRC-IRC-IRC-IRC-IRC-IRC-IRC-IRC-IRC-IRC-IRC-IRC-IRC-IRC-IRC
                          Input orientation:                          
 ---------------------------------------------------------------------
 Center     Atomic      Atomic             Coordinates (Angstroms)
 Number     Number       Type             X           Y           Z
 ---------------------------------------------------------------------
      1          7           0        0.420947    1.786529    0.000001
      2          6           0        0.624661    0.561422    0.000002
      3          7           0       -2.777670   -0.614328   -0.000001
      4          7           0       -3.688986   -0.020599   -0.000001
      5          8           0        2.936890   -0.502416   -0.000006
      6          7           0        1.736697   -0.339859   -0.000001
      7          6           0        0.533691   -0.858633    0.000007
      8          1           0       -0.572414    2.013193    0.000006
      9          1           0        0.028455   -1.813008    0.000014
 ---------------------------------------------------------------------
                    Distance matrix (angstroms):
                    1          2          3          4          5
     1  N    0.000000
     2  C    1.241929   0.000000
     3  N    3.999408   3.599756   0.000000
     4  N    4.489684   4.352735   1.087664   0.000000
     5  O    3.401358   2.545221   5.715655   6.643371   0.000000
     6  N    2.500544   1.431408   4.522702   5.435068   1.211151
     7  C    2.647563   1.422965   3.320361   4.305032   2.429455
     8  H    1.018893   1.881656   3.430309   3.721469   4.317812
     9  H    3.620872   2.448138   3.051421   4.126997   3.190085
                    6          7          8          9
     6  N    0.000000
     7  C    1.310095   0.000000
     8  H    3.296793   3.077475   0.000000
     9  H    2.255716   1.079859   3.873094   0.000000
 Symmetry turned off by external request.
 Stoichiometry    C2H2N4O
 Framework group  C1[X(C2H2N4O)]
 Deg. of freedom    21
 Full point group                 C1      NOp   1
 Rotational constants (GHZ):           6.6793717           1.0319874           0.8938797
 Standard basis: def2TZVP (5D, 7F)
   229 basis functions,   373 primitive gaussians,   264 cartesian basis functions
    25 alpha electrons       25 beta electrons
       nuclear repulsion energy       236.5506259664 Hartrees.
 NAtoms=    9 NActive=    9 NUniq=    9 SFac= 1.00D+00 NAtFMM=   60 NAOKFM=F Big=F
 Integral buffers will be    131072 words long.
 Raffenetti 2 integral format.
 Two-electron integral symmetry is turned off.
 Nuclear repulsion after empirical dispersion term =      236.5482810926 Hartrees.
 One-electron integrals computed using PRISM.
   1 Symmetry operations used in ECPInt.
 ECPInt:  NShTT=    3655 NPrTT=   11788 LenC2=    3444 LenP2D=    8638.
 LDataN:  DoStor=T MaxTD1= 6 Len=  172
 NBasis=   229 RedAO= T EigKep=  8.27D-05  NBF=   229
 NBsUse=   229 1.00D-06 EigRej= -1.00D+00 NBFU=   229
 Initial guess from the checkpoint file:  "/scratch/23935644/Gau-21632.chk"
 B after Tr=    -0.000150   -0.000391   -0.000000
         Rot=    1.000000   -0.000000    0.000000   -0.000042 Ang=  -0.00 deg.
 Initial guess <Sx>= 0.0000 <Sy>= 0.0000 <Sz>= 0.0000 <S**2>=-0.0000 S=-0.0000
 ExpMin= 9.52D-02 ExpMax= 2.70D+04 ExpMxC= 9.22D+02 IAcc=2 IRadAn=         4 AccDes= 0.00D+00
 Harris functional with IExCor= 4639 and IRadAn=       4 diagonalized for initial guess.
 HarFok:  IExCor= 4639 AccDes= 0.00D+00 IRadAn=         4 IDoV= 1 UseB2=F ITyADJ=14
 ICtDFT=  3500011 ScaDFX=  1.000000  1.000000  1.000000  1.000000
 FoFCou: FMM=F IPFlag=           0 FMFlag=      100000 FMFlg1=           0
         NFxFlg=           0 DoJE=T BraDBF=F KetDBF=T FulRan=T
         wScrn=  0.000000 ICntrl=       500 IOpCl=  0 I1Cent=   200000004 NGrid=           0
         NMat0=    1 NMatS0=      1 NMatT0=    0 NMatD0=    1 NMtDS0=    0 NMtDT0=    0
 Symmetry not used in FoFCou.
 Requested convergence on RMS density matrix=1.00D-08 within 128 cycles.
 Requested convergence on MAX density matrix=1.00D-06.
 Requested convergence on             energy=1.00D-06.
 No special actions if energy rises.
 Integral accuracy reduced to 1.0D-05 until final iterations.
 Initial convergence to 1.0D-05 achieved.  Increase integral accuracy.
 SCF Done:  E(UwB97XD) =  -371.512852053     A.U. after   11 cycles
            NFock= 11  Conv=0.94D-08     -V/T= 2.0039
 <Sx>= 0.0000 <Sy>= 0.0000 <Sz>= 0.0000 <S**2>=-0.0000 S=-0.0000
 <L.S>=  0.00000000000    
 Annihilation of the first spin contaminant:
 S**2 before annihilation    -0.0000,   after     0.0000
 DoSCS=F DFT=T ScalE2(SS,OS)=  1.000000  1.000000
 Range of M.O.s used for correlation:     1   229
 NBasis=   229 NAE=    25 NBE=    25 NFC=     0 NFV=     0
 NROrb=    229 NOA=    25 NOB=    25 NVA=   204 NVB=   204

 **** Warning!!: The largest alpha MO coefficient is  0.24506537D+02


 **** Warning!!: The largest beta MO coefficient is  0.24506537D+02

 Symmetrizing basis deriv contribution to polar:
 IMax=3 JMax=2 DiffMx= 0.00D+00
   1 Symmetry operations used in ECPInt.
 ECPInt:  NShTT=    3655 NPrTT=   11788 LenC2=    3444 LenP2D=    8638.
 LDataN:  DoStor=T MaxTD1= 7 Len=  274
 Calling FoFJK, ICntrl=      2147 FMM=F ISym2X=0 I1Cent= 0 IOpClX= 1 NMat=1 NMatS=1 NMatT=0.
 -------------------------------------------------------------------
 Center     Atomic                   Forces (Hartrees/Bohr)
 Number     Number              X              Y              Z
 -------------------------------------------------------------------
      1        7          -0.009480529    0.003477076    0.000000019
      2        6           0.004977965   -0.002761654    0.000000006
      3        7          -0.000247830   -0.000041165    0.000000007
      4        7          -0.000149809    0.000091891   -0.000000005
      5        8           0.002269746   -0.004353383   -0.000000052
      6        7          -0.000386220    0.001901690    0.000000086
      7        6           0.000142603    0.001704606   -0.000000022
      8        1           0.002995923   -0.000345005   -0.000000022
      9        1          -0.000121850    0.000325944   -0.000000016
 -------------------------------------------------------------------
 Cartesian Forces:  Max     0.009480529 RMS     0.002542107
 IRC-IRC-IRC-IRC-IRC-IRC-IRC-IRC-IRC-IRC-IRC-IRC-IRC-IRC-IRC-IRC-IRC-IRC
 Error in corrector energy =          -0.0001144158
 Magnitude of corrector gradient =     0.0082482612
 Magnitude of analytic gradient =      0.0132091763
 Magnitude of difference =             0.0120164886
 Angle between gradients (degrees)=   63.2379
 Pt 22 Step number  19 out of a maximum of  20
 Modified Bulirsch-Stoer Extrapolation Cycles:
    EPS =    0.000010000000000
      PEZero:  N= 2 I= 1 D=  7.85D-04 Err=  1.31D-04
      PEZero:  N= 3 I= 2 D=  7.85D-04 Err=  8.70D-05
      PEZero:  N= 3 I= 1 D=  1.57D-03 Err=  6.62D-07
 Maximum DWI energy   std dev =  0.000017730 at pt    -1
 Maximum DWI gradient std dev =  0.374605610 at pt    30
 CORRECTOR INTEGRATION CONVERGENCE:
   Recorrection delta-x convergence threshold:    0.010000
   Delta-x Convergence NOT Met
 IRC-IRC-IRC-IRC-IRC-IRC-IRC-IRC-IRC-IRC-IRC-IRC-IRC-IRC-IRC-IRC-IRC-IRC
                          Input orientation:                          
 ---------------------------------------------------------------------
 Center     Atomic      Atomic             Coordinates (Angstroms)
 Number     Number       Type             X           Y           Z
 ---------------------------------------------------------------------
      1          7           0        0.418582    1.787222    0.000001
      2          6           0        0.628206    0.559605    0.000002
      3          7           0       -2.777711   -0.614314   -0.000001
      4          7           0       -3.689017   -0.020585   -0.000001
      5          8           0        2.937797   -0.503717   -0.000006
      6          7           0        1.735630   -0.337606   -0.000001
      7          6           0        0.532667   -0.859202    0.000007
      8          1           0       -0.564544    2.026924    0.000006
      9          1           0        0.026718   -1.812460    0.000014
 ---------------------------------------------------------------------
                    Distance matrix (angstroms):
                    1          2          3          4          5
     1  N    0.000000
     2  C    1.245386   0.000000
     3  N    3.997958   3.602548   0.000000
     4  N    4.487822   4.356034   1.087655   0.000000
     5  O    3.405120   2.542610   5.716577   6.644402   0.000000
     6  N    2.499902   1.425264   4.521816   5.433903   1.213588
     7  C    2.648882   1.422019   3.319423   4.304172   2.431259
     8  H    1.011926   1.890946   3.445903   3.735590   4.320942
     9  H    3.620949   2.447137   3.049651   4.125227   3.191737
                    6          7          8          9
     6  N    0.000000
     7  C    1.311176   0.000000
     8  H    3.298758   3.087652   0.000000
     9  H    2.257338   1.079206   3.884645   0.000000
 Symmetry turned off by external request.
 Stoichiometry    C2H2N4O
 Framework group  C1[X(C2H2N4O)]
 Deg. of freedom    21
 Full point group                 C1      NOp   1
 Rotational constants (GHZ):           6.6727231           1.0318970           0.8936927
 Standard basis: def2TZVP (5D, 7F)
   229 basis functions,   373 primitive gaussians,   264 cartesian basis functions
    25 alpha electrons       25 beta electrons
       nuclear repulsion energy       236.5092735679 Hartrees.
 NAtoms=    9 NActive=    9 NUniq=    9 SFac= 1.00D+00 NAtFMM=   60 NAOKFM=F Big=F
 Integral buffers will be    131072 words long.
 Raffenetti 2 integral format.
 Two-electron integral symmetry is turned off.
 Nuclear repulsion after empirical dispersion term =      236.5069336896 Hartrees.
 One-electron integrals computed using PRISM.
   1 Symmetry operations used in ECPInt.
 ECPInt:  NShTT=    3655 NPrTT=   11788 LenC2=    3444 LenP2D=    8636.
 LDataN:  DoStor=T MaxTD1= 6 Len=  172
 NBasis=   229 RedAO= T EigKep=  8.21D-05  NBF=   229
 NBsUse=   229 1.00D-06 EigRej= -1.00D+00 NBFU=   229
 Initial guess from the checkpoint file:  "/scratch/23935644/Gau-21632.chk"
 B after Tr=     0.000150    0.000391    0.000000
         Rot=    1.000000    0.000000   -0.000000    0.000042 Ang=   0.00 deg.
 Initial guess <Sx>= 0.0000 <Sy>= 0.0000 <Sz>= 0.0000 <S**2>=-0.0000 S=-0.0000
 ExpMin= 9.52D-02 ExpMax= 2.70D+04 ExpMxC= 9.22D+02 IAcc=2 IRadAn=         4 AccDes= 0.00D+00
 Harris functional with IExCor= 4639 and IRadAn=       4 diagonalized for initial guess.
 HarFok:  IExCor= 4639 AccDes= 0.00D+00 IRadAn=         4 IDoV= 1 UseB2=F ITyADJ=14
 ICtDFT=  3500011 ScaDFX=  1.000000  1.000000  1.000000  1.000000
 FoFCou: FMM=F IPFlag=           0 FMFlag=      100000 FMFlg1=           0
         NFxFlg=           0 DoJE=T BraDBF=F KetDBF=T FulRan=T
         wScrn=  0.000000 ICntrl=       500 IOpCl=  0 I1Cent=   200000004 NGrid=           0
         NMat0=    1 NMatS0=      1 NMatT0=    0 NMatD0=    1 NMtDS0=    0 NMtDT0=    0
 Symmetry not used in FoFCou.
 Requested convergence on RMS density matrix=1.00D-08 within 128 cycles.
 Requested convergence on MAX density matrix=1.00D-06.
 Requested convergence on             energy=1.00D-06.
 No special actions if energy rises.
 Integral accuracy reduced to 1.0D-05 until final iterations.
 Initial convergence to 1.0D-05 achieved.  Increase integral accuracy.
 SCF Done:  E(UwB97XD) =  -371.512886215     A.U. after   12 cycles
            NFock= 12  Conv=0.45D-08     -V/T= 2.0039
 <Sx>= 0.0000 <Sy>= 0.0000 <Sz>= 0.0000 <S**2>=-0.0000 S=-0.0000
 <L.S>=  0.00000000000    
 Annihilation of the first spin contaminant:
 S**2 before annihilation    -0.0000,   after    -0.0000
 DoSCS=F DFT=T ScalE2(SS,OS)=  1.000000  1.000000
 Range of M.O.s used for correlation:     1   229
 NBasis=   229 NAE=    25 NBE=    25 NFC=     0 NFV=     0
 NROrb=    229 NOA=    25 NOB=    25 NVA=   204 NVB=   204

 **** Warning!!: The largest alpha MO coefficient is  0.24568095D+02


 **** Warning!!: The largest beta MO coefficient is  0.24568095D+02

 Symmetrizing basis deriv contribution to polar:
 IMax=3 JMax=2 DiffMx= 0.00D+00
   1 Symmetry operations used in ECPInt.
 ECPInt:  NShTT=    3655 NPrTT=   11788 LenC2=    3444 LenP2D=    8636.
 LDataN:  DoStor=T MaxTD1= 7 Len=  274
 Calling FoFJK, ICntrl=      2147 FMM=F ISym2X=0 I1Cent= 0 IOpClX= 1 NMat=1 NMatS=1 NMatT=0.
 -------------------------------------------------------------------
 Center     Atomic                   Forces (Hartrees/Bohr)
 Number     Number              X              Y              Z
 -------------------------------------------------------------------
      1        7          -0.001242323   -0.001984856   -0.000000006
      2        6           0.000032009    0.005257312    0.000000021
      3        7          -0.000239684   -0.000054213    0.000000007
      4        7          -0.000154550    0.000103234   -0.000000005
      5        8          -0.000714891   -0.003324078   -0.000000041
      6        7           0.003612595   -0.001466782    0.000000063
      7        6           0.001134552    0.002199288   -0.000000022
      8        1          -0.002351634   -0.000703386   -0.000000001
      9        1          -0.000076074   -0.000026520   -0.000000016
 -------------------------------------------------------------------
 Cartesian Forces:  Max     0.005257312 RMS     0.001634542
 IRC-IRC-IRC-IRC-IRC-IRC-IRC-IRC-IRC-IRC-IRC-IRC-IRC-IRC-IRC-IRC-IRC-IRC
 Error in corrector energy =          -0.0000612575
 Magnitude of corrector gradient =     0.0084658414
 Magnitude of analytic gradient =      0.0084933303
 Magnitude of difference =             0.0088467514
 Angle between gradients (degrees)=   62.8857
 Pt 22 Step number  20 out of a maximum of  20
 Modified Bulirsch-Stoer Extrapolation Cycles:
    EPS =    0.000010000000000
      PEZero:  N= 2 I= 1 D=  7.85D-04 Err=  4.62D-04
      PEZero:  N= 3 I= 2 D=  7.85D-04 Err=  3.07D-04
      PEZero:  N= 3 I= 1 D=  1.57D-03 Err=  1.15D-06
 Maximum DWI energy   std dev =  0.000023768 at pt    -1
 Maximum DWI gradient std dev =  0.278679437 at pt    -1
 CORRECTOR INTEGRATION CONVERGENCE:
   Recorrection delta-x convergence threshold:    0.010000
   Delta-x Convergence NOT Met
 Maximum number of corrector steps exceded.
 Error termination via Lnk1e in /software/kemi/g16/avx2/g16/l123.exe at Wed Jun 23 08:07:30 2021.
 Job cpu time:       0 days  9 hours  3 minutes 25.2 seconds.
 Elapsed time:       0 days  2 hours 17 minutes 35.4 seconds.
 File lengths (MBytes):  RWF=     87 Int=      0 D2E=      0 Chk=      7 Scr=      1
