 Entering Gaussian System, Link 0=/software/kemi/g16/avx2/g16/g16
 Initial command:
 /software/kemi/g16/avx2/g16/l1.exe "/scratch/23935644/Gau-14598.inp" -scrdir="/scratch/23935644/"
 Entering Link 1 = /software/kemi/g16/avx2/g16/l1.exe PID=     14599.
  
 Copyright (c) 1988,1990,1992,1993,1995,1998,2003,2009,2016,
            Gaussian, Inc.  All Rights Reserved.
  
 This is part of the Gaussian(R) 16 program.  It is based on
 the Gaussian(R) 09 system (copyright 2009, Gaussian, Inc.),
 the Gaussian(R) 03 system (copyright 2003, Gaussian, Inc.),
 the Gaussian(R) 98 system (copyright 1998, Gaussian, Inc.),
 the Gaussian(R) 94 system (copyright 1995, Gaussian, Inc.),
 the Gaussian 92(TM) system (copyright 1992, Gaussian, Inc.),
 the Gaussian 90(TM) system (copyright 1990, Gaussian, Inc.),
 the Gaussian 88(TM) system (copyright 1988, Gaussian, Inc.),
 the Gaussian 86(TM) system (copyright 1986, Carnegie Mellon
 University), and the Gaussian 82(TM) system (copyright 1983,
 Carnegie Mellon University). Gaussian is a federally registered
 trademark of Gaussian, Inc.
  
 This software contains proprietary and confidential information,
 including trade secrets, belonging to Gaussian, Inc.
  
 This software is provided under written license and may be
 used, copied, transmitted, or stored only in accord with that
 written license.
  
 The following legend is applicable only to US Government
 contracts under FAR:
  
                    RESTRICTED RIGHTS LEGEND
  
 Use, reproduction and disclosure by the US Government is
 subject to restrictions as set forth in subparagraphs (a)
 and (c) of the Commercial Computer Software - Restricted
 Rights clause in FAR 52.227-19.
  
 Gaussian, Inc.
 340 Quinnipiac St., Bldg. 40, Wallingford CT 06492
  
  
 ---------------------------------------------------------------
 Warning -- This program may not be used in any manner that
 competes with the business of Gaussian, Inc. or will provide
 assistance to any competitor of Gaussian, Inc.  The licensee
 of this program is prohibited from giving any competitor of
 Gaussian, Inc. access to this program.  By using this program,
 the user acknowledges that Gaussian, Inc. is engaged in the
 business of creating and licensing software in the field of
 computational chemistry and represents and warrants to the
 licensee that it is not a competitor of Gaussian, Inc. and that
 it will not use this program in any manner prohibited above.
 ---------------------------------------------------------------
  

 Cite this work as:
 Gaussian 16, Revision A.03,
 M. J. Frisch, G. W. Trucks, H. B. Schlegel, G. E. Scuseria, 
 M. A. Robb, J. R. Cheeseman, G. Scalmani, V. Barone, 
 G. A. Petersson, H. Nakatsuji, X. Li, M. Caricato, A. V. Marenich, 
 J. Bloino, B. G. Janesko, R. Gomperts, B. Mennucci, H. P. Hratchian, 
 J. V. Ortiz, A. F. Izmaylov, J. L. Sonnenberg, D. Williams-Young, 
 F. Ding, F. Lipparini, F. Egidi, J. Goings, B. Peng, A. Petrone, 
 T. Henderson, D. Ranasinghe, V. G. Zakrzewski, J. Gao, N. Rega, 
 G. Zheng, W. Liang, M. Hada, M. Ehara, K. Toyota, R. Fukuda, 
 J. Hasegawa, M. Ishida, T. Nakajima, Y. Honda, O. Kitao, H. Nakai, 
 T. Vreven, K. Throssell, J. A. Montgomery, Jr., J. E. Peralta, 
 F. Ogliaro, M. J. Bearpark, J. J. Heyd, E. N. Brothers, K. N. Kudin, 
 V. N. Staroverov, T. A. Keith, R. Kobayashi, J. Normand, 
 K. Raghavachari, A. P. Rendell, J. C. Burant, S. S. Iyengar, 
 J. Tomasi, M. Cossi, J. M. Millam, M. Klene, C. Adamo, R. Cammi, 
 J. W. Ochterski, R. L. Martin, K. Morokuma, O. Farkas, 
 J. B. Foresman, and D. J. Fox, Gaussian, Inc., Wallingford CT, 2016.
 
 ******************************************
 Gaussian 16:  ES64L-G16RevA.03 25-Dec-2016
                22-Jun-2021 
 ******************************************
 %nprocshared=4
 Will use up to    4 processors via shared memory.
 %mem=8GB
 ------------------
 # UwB97XD/Def2TZVP
 ------------------
 1/38=1,172=1/1;
 2/12=2,17=6,18=5,40=1/2;
 3/5=44,7=101,11=2,25=1,30=1,74=-58,116=2/1,2,3;
 4//1;
 5/5=2,38=5/2;
 6/7=2,8=2,9=2,10=2,28=1/1;
 99/5=1,9=1/99;
 ---------------
 something title
 ---------------
 Symbolic Z-matrix:
 Charge =  0 Multiplicity = 1
 N                    -0.49535  -0.17317  -1.29109 
 C                    -0.44672  -0.8862   -0.21755 
 N                    -1.54368  -1.11625   0.51612 
 N                    -2.6313   -1.34369   0.74548 
 O                     3.06687  -1.36513  -0.32376 
 N                     1.86856  -1.34237  -0.24962 
 C                     0.81543  -1.24835   0.42767 
 H                    -1.40441   0.21287  -1.54661 
 H                     0.74666  -1.54968   1.46168 
 
                          Input orientation:                          
 ---------------------------------------------------------------------
 Center     Atomic      Atomic             Coordinates (Angstroms)
 Number     Number       Type             X           Y           Z
 ---------------------------------------------------------------------
      1          7           0       -0.495345   -0.173173   -1.291087
      2          6           0       -0.446719   -0.886200   -0.217546
      3          7           0       -1.543683   -1.116246    0.516118
      4          7           0       -2.631295   -1.343690    0.745476
      5          8           0        3.066868   -1.365127   -0.323761
      6          7           0        1.868560   -1.342367   -0.249617
      7          6           0        0.815432   -1.248350    0.427666
      8          1           0       -1.404405    0.212872   -1.546605
      9          1           0        0.746660   -1.549683    1.461676
 ---------------------------------------------------------------------
                    Distance matrix (angstroms):
                    1          2          3          4          5
     1  N    0.000000
     2  C    1.289675   0.000000
     3  N    2.292245   1.339595   0.000000
     4  N    3.174899   2.430860   1.134564   0.000000
     5  O    3.878896   3.547668   4.693029   5.797654   0.000000
     6  N    2.835440   2.360007   3.504409   4.608569   1.200815
     7  C    2.414178   1.463037   2.364466   3.462661   2.376393
     8  H    1.020152   1.972693   2.457800   3.030145   4.896704
     9  H    3.318894   2.164290   2.515476   3.459184   2.933464
                    6          7          8          9
     6  N    0.000000
     7  C    1.255639   0.000000
     8  H    3.848798   3.310678   0.000000
     9  H    2.056736   1.079216   4.096759   0.000000
 Stoichiometry    C2H2N4O
 Framework group  C1[X(C2H2N4O)]
 Deg. of freedom    21
 Full point group                 C1      NOp   1
 Largest Abelian subgroup         C1      NOp   1
 Largest concise Abelian subgroup C1      NOp   1
                         Standard orientation:                         
 ---------------------------------------------------------------------
 Center     Atomic      Atomic             Coordinates (Angstroms)
 Number     Number       Type             X           Y           Z
 ---------------------------------------------------------------------
      1          7           0       -0.523423    1.547653    0.038400
      2          6           0       -0.562964    0.259180   -0.000799
      3          7           0       -1.725406   -0.404086    0.056810
      4          7           0       -2.816671   -0.640389   -0.144532
      5          8           0        2.959945   -0.156661   -0.047031
      6          7           0        1.762553   -0.121334   -0.130470
      7          6           0        0.630267   -0.568477    0.177136
      8          1           0       -1.416399    2.033259    0.124953
      9          1           0        0.453654   -1.597098    0.451824
 ---------------------------------------------------------------------
 Rotational constants (GHZ):           9.2270737           1.4344590           1.2489619
 Standard basis: def2TZVP (5D, 7F)
 There are   264 symmetry adapted cartesian basis functions of A   symmetry.
 There are   229 symmetry adapted basis functions of A   symmetry.
   229 basis functions,   373 primitive gaussians,   264 cartesian basis functions
    25 alpha electrons       25 beta electrons
       nuclear repulsion energy       256.4253839104 Hartrees.
 NAtoms=    9 NActive=    9 NUniq=    9 SFac= 1.00D+00 NAtFMM=   60 NAOKFM=F Big=F
 Integral buffers will be    131072 words long.
 Raffenetti 2 integral format.
 Two-electron integral symmetry is turned on.
 Nuclear repulsion after empirical dispersion term =      256.4228538739 Hartrees.
 One-electron integrals computed using PRISM.
   1 Symmetry operations used in ECPInt.
 ECPInt:  NShTT=    3655 NPrTT=   11788 LenC2=    3519 LenP2D=    9052.
 LDataN:  DoStor=T MaxTD1= 6 Len=  172
 NBasis=   229 RedAO= T EigKep=  1.81D-04  NBF=   229
 NBsUse=   229 1.00D-06 EigRej= -1.00D+00 NBFU=   229
 ExpMin= 9.52D-02 ExpMax= 2.70D+04 ExpMxC= 9.22D+02 IAcc=3 IRadAn=         5 AccDes= 0.00D+00
 Harris functional with IExCor= 4639 and IRadAn=       5 diagonalized for initial guess.
 HarFok:  IExCor= 4639 AccDes= 0.00D+00 IRadAn=         5 IDoV= 1 UseB2=F ITyADJ=14
 ICtDFT=  3500011 ScaDFX=  1.000000  1.000000  1.000000  1.000000
 FoFCou: FMM=F IPFlag=           0 FMFlag=      100000 FMFlg1=           0
         NFxFlg=           0 DoJE=T BraDBF=F KetDBF=T FulRan=T
         wScrn=  0.000000 ICntrl=       500 IOpCl=  0 I1Cent=   200000004 NGrid=           0
         NMat0=    1 NMatS0=      1 NMatT0=    0 NMatD0=    1 NMtDS0=    0 NMtDT0=    0
 Petite list used in FoFCou.
 Initial guess <Sx>= 0.0000 <Sy>= 0.0000 <Sz>= 0.0000 <S**2>=-0.0000 S=-0.0000
 Requested convergence on RMS density matrix=1.00D-08 within 128 cycles.
 Requested convergence on MAX density matrix=1.00D-06.
 Requested convergence on             energy=1.00D-06.
 No special actions if energy rises.
 Integral accuracy reduced to 1.0D-05 until final iterations.
 Initial convergence to 1.0D-05 achieved.  Increase integral accuracy.
 SCF Done:  E(UwB97XD) =  -371.398798223     A.U. after   26 cycles
            NFock= 26  Conv=0.91D-08     -V/T= 2.0037
 <Sx>= 0.0000 <Sy>= 0.0000 <Sz>= 0.0000 <S**2>=-0.0000 S=-0.0000
 <L.S>=  0.00000000000    
 Annihilation of the first spin contaminant:
 S**2 before annihilation    -0.0000,   after     0.0000

 **********************************************************************

            Population analysis using the SCF density.

 **********************************************************************

 Orbital symmetries:
 Alpha Orbitals:
       Occupied  (A) (A) (A) (A) (A) (A) (A) (A) (A) (A) (A) (A)
                 (A) (A) (A) (A) (A) (A) (A) (A) (A) (A) (A) (A)
                 (A)
       Virtual   (A) (A) (A) (A) (A) (A) (A) (A) (A) (A) (A) (A)
                 (A) (A) (A) (A) (A) (A) (A) (A) (A) (A) (A) (A)
                 (A) (A) (A) (A) (A) (A) (A) (A) (A) (A) (A) (A)
                 (A) (A) (A) (A) (A) (A) (A) (A) (A) (A) (A) (A)
                 (A) (A) (A) (A) (A) (A) (A) (A) (A) (A) (A) (A)
                 (A) (A) (A) (A) (A) (A) (A) (A) (A) (A) (A) (A)
                 (A) (A) (A) (A) (A) (A) (A) (A) (A) (A) (A) (A)
                 (A) (A) (A) (A) (A) (A) (A) (A) (A) (A) (A) (A)
                 (A) (A) (A) (A) (A) (A) (A) (A) (A) (A) (A) (A)
                 (A) (A) (A) (A) (A) (A) (A) (A) (A) (A) (A) (A)
                 (A) (A) (A) (A) (A) (A) (A) (A) (A) (A) (A) (A)
                 (A) (A) (A) (A) (A) (A) (A) (A) (A) (A) (A) (A)
                 (A) (A) (A) (A) (A) (A) (A) (A) (A) (A) (A) (A)
                 (A) (A) (A) (A) (A) (A) (A) (A) (A) (A) (A) (A)
                 (A) (A) (A) (A) (A) (A) (A) (A) (A) (A) (A) (A)
                 (A) (A) (A) (A) (A) (A) (A) (A) (A) (A) (A) (A)
                 (A) (A) (A) (A) (A) (A) (A) (A) (A) (A) (A) (A)
 Beta  Orbitals:
       Occupied  (A) (A) (A) (A) (A) (A) (A) (A) (A) (A) (A) (A)
                 (A) (A) (A) (A) (A) (A) (A) (A) (A) (A) (A) (A)
                 (A)
       Virtual   (A) (A) (A) (A) (A) (A) (A) (A) (A) (A) (A) (A)
                 (A) (A) (A) (A) (A) (A) (A) (A) (A) (A) (A) (A)
                 (A) (A) (A) (A) (A) (A) (A) (A) (A) (A) (A) (A)
                 (A) (A) (A) (A) (A) (A) (A) (A) (A) (A) (A) (A)
                 (A) (A) (A) (A) (A) (A) (A) (A) (A) (A) (A) (A)
                 (A) (A) (A) (A) (A) (A) (A) (A) (A) (A) (A) (A)
                 (A) (A) (A) (A) (A) (A) (A) (A) (A) (A) (A) (A)
                 (A) (A) (A) (A) (A) (A) (A) (A) (A) (A) (A) (A)
                 (A) (A) (A) (A) (A) (A) (A) (A) (A) (A) (A) (A)
                 (A) (A) (A) (A) (A) (A) (A) (A) (A) (A) (A) (A)
                 (A) (A) (A) (A) (A) (A) (A) (A) (A) (A) (A) (A)
                 (A) (A) (A) (A) (A) (A) (A) (A) (A) (A) (A) (A)
                 (A) (A) (A) (A) (A) (A) (A) (A) (A) (A) (A) (A)
                 (A) (A) (A) (A) (A) (A) (A) (A) (A) (A) (A) (A)
                 (A) (A) (A) (A) (A) (A) (A) (A) (A) (A) (A) (A)
                 (A) (A) (A) (A) (A) (A) (A) (A) (A) (A) (A) (A)
                 (A) (A) (A) (A) (A) (A) (A) (A) (A) (A) (A) (A)
 The electronic state is 1-A.
 Alpha  occ. eigenvalues --  -19.30451 -14.62982 -14.59017 -14.55768 -14.43883
 Alpha  occ. eigenvalues --  -10.41767 -10.35616  -1.28119  -1.26200  -1.07157
 Alpha  occ. eigenvalues --   -0.98185  -0.92438  -0.74185  -0.66951  -0.64007
 Alpha  occ. eigenvalues --   -0.63385  -0.61873  -0.59942  -0.57421  -0.56961
 Alpha  occ. eigenvalues --   -0.49583  -0.45651  -0.39103  -0.34189  -0.24615
 Alpha virt. eigenvalues --   -0.08837  -0.04164   0.02879   0.10112   0.13983
 Alpha virt. eigenvalues --    0.15078   0.18307   0.18944   0.24423   0.26987
 Alpha virt. eigenvalues --    0.28254   0.30122   0.31811   0.32527   0.34228
 Alpha virt. eigenvalues --    0.35760   0.38306   0.40321   0.41558   0.44492
 Alpha virt. eigenvalues --    0.45315   0.46455   0.48212   0.49105   0.50864
 Alpha virt. eigenvalues --    0.53391   0.54350   0.54868   0.55187   0.56991
 Alpha virt. eigenvalues --    0.57940   0.59881   0.61445   0.64796   0.65580
 Alpha virt. eigenvalues --    0.67756   0.70456   0.73308   0.78137   0.79077
 Alpha virt. eigenvalues --    0.80786   0.82547   0.86613   0.90746   0.92423
 Alpha virt. eigenvalues --    0.98805   0.99957   1.01678   1.04808   1.10458
 Alpha virt. eigenvalues --    1.11198   1.14899   1.20212   1.25216   1.28584
 Alpha virt. eigenvalues --    1.30264   1.32072   1.33681   1.38315   1.42931
 Alpha virt. eigenvalues --    1.43874   1.47243   1.50705   1.51305   1.53623
 Alpha virt. eigenvalues --    1.55654   1.58561   1.61250   1.64850   1.66142
 Alpha virt. eigenvalues --    1.69069   1.71158   1.75447   1.78588   1.81849
 Alpha virt. eigenvalues --    1.84455   1.88225   1.89962   1.92116   1.97355
 Alpha virt. eigenvalues --    2.02155   2.05379   2.07763   2.11597   2.13327
 Alpha virt. eigenvalues --    2.14556   2.18729   2.22570   2.24930   2.25808
 Alpha virt. eigenvalues --    2.29184   2.33412   2.37449   2.40017   2.43949
 Alpha virt. eigenvalues --    2.47488   2.48956   2.56484   2.61288   2.64410
 Alpha virt. eigenvalues --    2.67148   2.69617   2.74900   2.81995   2.85145
 Alpha virt. eigenvalues --    2.88820   2.92506   2.94506   2.97655   2.98730
 Alpha virt. eigenvalues --    3.02044   3.08399   3.11773   3.13958   3.15957
 Alpha virt. eigenvalues --    3.19070   3.22761   3.25923   3.28526   3.36223
 Alpha virt. eigenvalues --    3.38360   3.43454   3.47976   3.49745   3.56096
 Alpha virt. eigenvalues --    3.58710   3.61900   3.65361   3.70969   3.73605
 Alpha virt. eigenvalues --    3.74445   3.77803   3.78276   3.83212   3.86611
 Alpha virt. eigenvalues --    3.89696   3.96122   4.03269   4.03879   4.08269
 Alpha virt. eigenvalues --    4.12177   4.20750   4.22425   4.29485   4.31275
 Alpha virt. eigenvalues --    4.38486   4.38778   4.42762   4.43832   4.48798
 Alpha virt. eigenvalues --    4.51415   4.56456   4.61893   4.63065   4.64812
 Alpha virt. eigenvalues --    4.70494   4.72594   4.76183   4.77761   4.79275
 Alpha virt. eigenvalues --    4.81011   4.85085   4.91099   4.92930   4.99020
 Alpha virt. eigenvalues --    5.04618   5.05757   5.08119   5.11345   5.12881
 Alpha virt. eigenvalues --    5.16382   5.21520   5.23219   5.24093   5.27523
 Alpha virt. eigenvalues --    5.39289   5.39696   5.45540   5.53611   5.59344
 Alpha virt. eigenvalues --    5.73877   5.78609   5.79367   5.87473   6.03078
 Alpha virt. eigenvalues --    6.34916   6.35612   6.40937   6.54328   6.58626
 Alpha virt. eigenvalues --    6.63805   6.72280   6.89120   7.03820   7.14585
 Alpha virt. eigenvalues --    7.35414   7.44131  22.90899  23.30544  31.73703
 Alpha virt. eigenvalues --   32.07967  32.58929  32.95322  44.17943
  Beta  occ. eigenvalues --  -19.30451 -14.62982 -14.59017 -14.55768 -14.43883
  Beta  occ. eigenvalues --  -10.41767 -10.35616  -1.28119  -1.26200  -1.07157
  Beta  occ. eigenvalues --   -0.98185  -0.92438  -0.74185  -0.66951  -0.64007
  Beta  occ. eigenvalues --   -0.63385  -0.61873  -0.59942  -0.57421  -0.56961
  Beta  occ. eigenvalues --   -0.49583  -0.45651  -0.39103  -0.34189  -0.24615
  Beta virt. eigenvalues --   -0.08837  -0.04164   0.02879   0.10112   0.13983
  Beta virt. eigenvalues --    0.15078   0.18307   0.18944   0.24423   0.26987
  Beta virt. eigenvalues --    0.28254   0.30122   0.31811   0.32527   0.34228
  Beta virt. eigenvalues --    0.35760   0.38306   0.40321   0.41558   0.44492
  Beta virt. eigenvalues --    0.45315   0.46455   0.48212   0.49105   0.50864
  Beta virt. eigenvalues --    0.53391   0.54350   0.54868   0.55187   0.56991
  Beta virt. eigenvalues --    0.57940   0.59881   0.61445   0.64796   0.65580
  Beta virt. eigenvalues --    0.67756   0.70456   0.73308   0.78137   0.79077
  Beta virt. eigenvalues --    0.80786   0.82547   0.86613   0.90746   0.92423
  Beta virt. eigenvalues --    0.98805   0.99957   1.01678   1.04808   1.10458
  Beta virt. eigenvalues --    1.11198   1.14899   1.20212   1.25216   1.28584
  Beta virt. eigenvalues --    1.30264   1.32072   1.33681   1.38315   1.42931
  Beta virt. eigenvalues --    1.43874   1.47243   1.50705   1.51305   1.53623
  Beta virt. eigenvalues --    1.55654   1.58561   1.61250   1.64850   1.66142
  Beta virt. eigenvalues --    1.69069   1.71158   1.75447   1.78588   1.81849
  Beta virt. eigenvalues --    1.84455   1.88225   1.89962   1.92116   1.97355
  Beta virt. eigenvalues --    2.02155   2.05379   2.07763   2.11597   2.13327
  Beta virt. eigenvalues --    2.14556   2.18729   2.22570   2.24930   2.25808
  Beta virt. eigenvalues --    2.29184   2.33412   2.37449   2.40017   2.43949
  Beta virt. eigenvalues --    2.47488   2.48956   2.56484   2.61288   2.64410
  Beta virt. eigenvalues --    2.67148   2.69617   2.74900   2.81995   2.85145
  Beta virt. eigenvalues --    2.88820   2.92506   2.94506   2.97655   2.98730
  Beta virt. eigenvalues --    3.02044   3.08399   3.11773   3.13958   3.15957
  Beta virt. eigenvalues --    3.19070   3.22761   3.25923   3.28526   3.36223
  Beta virt. eigenvalues --    3.38360   3.43454   3.47976   3.49745   3.56096
  Beta virt. eigenvalues --    3.58710   3.61900   3.65361   3.70969   3.73605
  Beta virt. eigenvalues --    3.74445   3.77803   3.78276   3.83212   3.86611
  Beta virt. eigenvalues --    3.89696   3.96122   4.03269   4.03879   4.08269
  Beta virt. eigenvalues --    4.12177   4.20750   4.22425   4.29485   4.31275
  Beta virt. eigenvalues --    4.38486   4.38778   4.42762   4.43832   4.48798
  Beta virt. eigenvalues --    4.51415   4.56456   4.61893   4.63065   4.64812
  Beta virt. eigenvalues --    4.70494   4.72594   4.76183   4.77761   4.79275
  Beta virt. eigenvalues --    4.81011   4.85085   4.91099   4.92930   4.99020
  Beta virt. eigenvalues --    5.04618   5.05757   5.08119   5.11345   5.12881
  Beta virt. eigenvalues --    5.16382   5.21520   5.23219   5.24093   5.27523
  Beta virt. eigenvalues --    5.39289   5.39696   5.45540   5.53611   5.59344
  Beta virt. eigenvalues --    5.73877   5.78609   5.79367   5.87473   6.03078
  Beta virt. eigenvalues --    6.34916   6.35612   6.40937   6.54328   6.58626
  Beta virt. eigenvalues --    6.63805   6.72280   6.89120   7.03820   7.14585
  Beta virt. eigenvalues --    7.35414   7.44131  22.90899  23.30544  31.73703
  Beta virt. eigenvalues --   32.07967  32.58929  32.95322  44.17943
          Condensed to atoms (all electrons):
               1          2          3          4          5          6
     1  N    6.545547   0.686156  -0.086682  -0.002503  -0.000742  -0.001629
     2  C    0.686156   4.842222   0.300745  -0.062149   0.004986  -0.090129
     3  N   -0.086682   0.300745   6.302395   0.402580  -0.000170   0.001147
     4  N   -0.002503  -0.062149   0.402580   6.715187  -0.000005   0.000917
     5  O   -0.000742   0.004986  -0.000170  -0.000005   8.087647   0.256257
     6  N   -0.001629  -0.090129   0.001147   0.000917   0.256257   6.079679
     7  C   -0.095581   0.269711  -0.042564   0.006761  -0.065056   0.583412
     8  H    0.346190  -0.059108  -0.010927   0.000857   0.000014   0.000156
     9  H   -0.002787  -0.143305   0.024942   0.005533   0.003501  -0.025590
               7          8          9
     1  N   -0.095581   0.346190  -0.002787
     2  C    0.269711  -0.059108  -0.143305
     3  N   -0.042564  -0.010927   0.024942
     4  N    0.006761   0.000857   0.005533
     5  O   -0.065056   0.000014   0.003501
     6  N    0.583412   0.000156  -0.025590
     7  C    5.059102   0.014437   0.432003
     8  H    0.014437   0.487030  -0.000336
     9  H    0.432003  -0.000336   0.579102
          Atomic-Atomic Spin Densities.
               1          2          3          4          5          6
     1  N    0.000000  -0.000000  -0.000000   0.000000  -0.000000   0.000000
     2  C   -0.000000   0.000000   0.000000  -0.000000  -0.000000   0.000000
     3  N   -0.000000   0.000000   0.000000  -0.000000   0.000000  -0.000000
     4  N    0.000000  -0.000000  -0.000000   0.000000  -0.000000   0.000000
     5  O   -0.000000  -0.000000   0.000000  -0.000000  -0.000000   0.000000
     6  N    0.000000   0.000000  -0.000000   0.000000   0.000000  -0.000000
     7  C   -0.000000  -0.000000   0.000000   0.000000  -0.000000   0.000000
     8  H   -0.000000   0.000000  -0.000000   0.000000  -0.000000   0.000000
     9  H   -0.000000   0.000000   0.000000  -0.000000  -0.000000   0.000000
               7          8          9
     1  N   -0.000000  -0.000000  -0.000000
     2  C   -0.000000   0.000000   0.000000
     3  N    0.000000  -0.000000   0.000000
     4  N    0.000000   0.000000  -0.000000
     5  O   -0.000000  -0.000000  -0.000000
     6  N    0.000000   0.000000   0.000000
     7  C   -0.000000   0.000000   0.000000
     8  H    0.000000  -0.000000   0.000000
     9  H    0.000000   0.000000  -0.000000
 Mulliken charges and spin densities:
               1          2
     1  N   -0.387969   0.000000
     2  C    0.250870   0.000000
     3  N    0.108533   0.000000
     4  N   -0.067179   0.000000
     5  O   -0.286432  -0.000000
     6  N    0.195779  -0.000000
     7  C   -0.162226  -0.000000
     8  H    0.221687  -0.000000
     9  H    0.126937  -0.000000
 Sum of Mulliken charges =  -0.00000   0.00000
 Mulliken charges and spin densities with hydrogens summed into heavy atoms:
               1          2
     1  N   -0.166283   0.000000
     2  C    0.250870   0.000000
     3  N    0.108533   0.000000
     4  N   -0.067179   0.000000
     5  O   -0.286432  -0.000000
     6  N    0.195779  -0.000000
     7  C   -0.035289  -0.000000
 Electronic spatial extent (au):  <R**2>=            831.8396
 Charge=             -0.0000 electrons
 Dipole moment (field-independent basis, Debye):
    X=             -4.1653    Y=             -1.7525    Z=              0.5428  Tot=              4.5514
 Quadrupole moment (field-independent basis, Debye-Ang):
   XX=            -45.0491   YY=            -38.0163   ZZ=            -39.3320
   XY=             -3.3605   XZ=             -0.0163   YZ=              0.1662
 Traceless Quadrupole moment (field-independent basis, Debye-Ang):
   XX=             -4.2500   YY=              2.7829   ZZ=              1.4671
   XY=             -3.3605   XZ=             -0.0163   YZ=              0.1662
 Octapole moment (field-independent basis, Debye-Ang**2):
  XXX=            -18.5649  YYY=             -5.0997  ZZZ=             -0.4714  XYY=             -3.8705
  XXY=              8.1654  XXZ=              1.9369  XZZ=              1.4059  YZZ=             -1.0107
  YYZ=              1.1380  XYZ=              0.2779
 Hexadecapole moment (field-independent basis, Debye-Ang**3):
 XXXX=           -919.0937 YYYY=           -169.3563 ZZZZ=            -40.8059 XXXY=            -17.2062
 XXXZ=             -2.8589 YYYX=            -16.0879 YYYZ=              0.5093 ZZZX=             -0.8970
 ZZZY=              0.9180 XXYY=           -150.6919 XXZZ=           -141.2988 YYZZ=            -37.7997
 XXYZ=              2.1010 YYXZ=             -1.1719 ZZXY=             -0.4775
 N-N= 2.564228538739D+02 E-N=-1.381455831826D+03  KE= 3.700353719659D+02
                          Isotropic Fermi Contact Couplings
        Atom                 a.u.       MegaHertz       Gauss      10(-4) cm-1
     1  N(14)              0.00000       0.00000       0.00000       0.00000
     2  C(13)             -0.00000      -0.00000      -0.00000      -0.00000
     3  N(14)              0.00000       0.00000       0.00000       0.00000
     4  N(14)              0.00000       0.00000       0.00000       0.00000
     5  O(17)             -0.00000       0.00000       0.00000       0.00000
     6  N(14)             -0.00000      -0.00000      -0.00000      -0.00000
     7  C(13)             -0.00000      -0.00000      -0.00000      -0.00000
     8  H(1)              -0.00000      -0.00000      -0.00000      -0.00000
     9  H(1)              -0.00000      -0.00000      -0.00000      -0.00000
 --------------------------------------------------------
       Center         ----  Spin Dipole Couplings  ----
                      3XX-RR        3YY-RR        3ZZ-RR
 --------------------------------------------------------
     1   Atom       -0.000000     -0.000000      0.000000
     2   Atom       -0.000000      0.000000      0.000000
     3   Atom       -0.000000     -0.000000      0.000000
     4   Atom       -0.000000     -0.000000      0.000000
     5   Atom        0.000000     -0.000000      0.000000
     6   Atom        0.000000     -0.000000      0.000000
     7   Atom       -0.000000      0.000000     -0.000000
     8   Atom        0.000000     -0.000000     -0.000000
     9   Atom        0.000000     -0.000000      0.000000
 --------------------------------------------------------
                        XY            XZ            YZ
 --------------------------------------------------------
     1   Atom        0.000000      0.000000     -0.000000
     2   Atom        0.000000      0.000000      0.000000
     3   Atom        0.000000     -0.000000     -0.000000
     4   Atom        0.000000     -0.000000     -0.000000
     5   Atom        0.000000     -0.000000      0.000000
     6   Atom        0.000000     -0.000000      0.000000
     7   Atom       -0.000000      0.000000      0.000000
     8   Atom       -0.000000     -0.000000      0.000000
     9   Atom       -0.000000      0.000000     -0.000000
 --------------------------------------------------------


 ---------------------------------------------------------------------------------
              Anisotropic Spin Dipole Couplings in Principal Axis System
 ---------------------------------------------------------------------------------

       Atom             a.u.   MegaHertz   Gauss  10(-4) cm-1        Axes

              Baa    -0.0000    -0.000    -0.000    -0.000  0.8722 -0.4831 -0.0770
     1 N(14)  Bbb    -0.0000    -0.000    -0.000    -0.000  0.4814  0.8756 -0.0401
              Bcc     0.0000     0.000     0.000     0.000  0.0868 -0.0021  0.9962
 
              Baa    -0.0000    -0.000    -0.000    -0.000  0.8827 -0.3788 -0.2781
     2 C(13)  Bbb    -0.0000    -0.000    -0.000    -0.000  0.1589  0.7976 -0.5819
              Bcc     0.0000     0.000     0.000     0.000  0.4423  0.4695  0.7642
 
              Baa    -0.0000    -0.000    -0.000    -0.000 -0.2806  0.9596  0.0206
     3 N(14)  Bbb    -0.0000    -0.000    -0.000    -0.000  0.9598  0.2805  0.0074
              Bcc     0.0000     0.000     0.000     0.000 -0.0013 -0.0219  0.9998
 
              Baa    -0.0000    -0.000    -0.000    -0.000  0.9930 -0.0446  0.1094
     4 N(14)  Bbb    -0.0000    -0.000    -0.000    -0.000  0.0342  0.9949  0.0950
              Bcc     0.0000     0.000     0.000     0.000 -0.1130 -0.0906  0.9895
 
              Baa    -0.0000     0.000     0.000     0.000 -0.1284  0.9627 -0.2381
     5 O(17)  Bbb     0.0000    -0.000    -0.000    -0.000  0.9869  0.1476  0.0646
              Bcc     0.0000    -0.000    -0.000    -0.000 -0.0973  0.2267  0.9691
 
              Baa    -0.0000    -0.000    -0.000    -0.000 -0.1407  0.9198 -0.3664
     6 N(14)  Bbb     0.0000     0.000     0.000     0.000  0.9819  0.0822 -0.1706
              Bcc     0.0000     0.000     0.000     0.000  0.1268  0.3838  0.9147
 
              Baa    -0.0000    -0.000    -0.000    -0.000 -0.6593 -0.1452  0.7377
     7 C(13)  Bbb     0.0000     0.000     0.000     0.000  0.5888  0.5105  0.6267
              Bcc     0.0000     0.000     0.000     0.000 -0.4676  0.8475 -0.2511
 
              Baa    -0.0000    -0.000    -0.000    -0.000  0.4864  0.8697 -0.0842
     8 H(1)   Bbb    -0.0000    -0.000    -0.000    -0.000  0.0954  0.0430  0.9945
              Bcc     0.0000     0.000     0.000     0.000  0.8685 -0.4918 -0.0621
 
              Baa    -0.0000    -0.000    -0.000    -0.000  0.4831  0.8650 -0.1354
     9 H(1)   Bbb     0.0000     0.000     0.000     0.000 -0.3318  0.3240  0.8860
              Bcc     0.0000     0.000     0.000     0.000  0.8102 -0.3831  0.4435
 

 ---------------------------------------------------------------------------------

 1\1\GINC-NODE305\SP\UwB97XD\def2TZVP\C2H2N4O1\MHARRIS\22-Jun-2021\0\\#
  UwB97XD/Def2TZVP\\something title\\0,1\N,0,-0.495345,-0.173173,-1.291
 087\C,0,-0.446719,-0.8862,-0.217546\N,0,-1.543683,-1.116246,0.516118\N
 ,0,-2.631295,-1.34369,0.745476\O,0,3.066868,-1.365127,-0.323761\N,0,1.
 86856,-1.342367,-0.249617\C,0,0.815432,-1.24835,0.427666\H,0,-1.404405
 ,0.212872,-1.546605\H,0,0.74666,-1.549683,1.461676\\Version=ES64L-G16R
 evA.03\State=1-A\HF=-371.3987982\S2=0.\S2-1=0.\S2A=0.\RMSD=9.103e-09\D
 ipole=-1.5484414,-0.0823264,0.8955349\Quadrupole=-2.7237814,1.625512,1
 .0982695,-1.1061939,2.6240796,-0.4918884\PG=C01 [X(C2H2N4O1)]\\@


 Discoveries are often made by not following instructions,
 by going off the main road, by trying the untried.
 -- Frank Tyger
 Job cpu time:       0 days  0 hours 22 minutes 57.0 seconds.
 Elapsed time:       0 days  0 hours  5 minutes 45.1 seconds.
 File lengths (MBytes):  RWF=     54 Int=      0 D2E=      0 Chk=      5 Scr=      1
 Normal termination of Gaussian 16 at Tue Jun 22 16:15:03 2021.
