      -----------------------------------------------------------      
     |                   =====================                   |     
     |                           x T B                           |     
     |                   =====================                   |     
     |                         S. Grimme                         |     
     |          Mulliken Center for Theoretical Chemistry        |     
     |                    University of Bonn                     |     
     |                 Version 6.1.4 (SAW190525)                 |     
      -----------------------------------------------------------      

   This program is distributed in the hope that it will be useful,
   but WITHOUT ANY WARRANTY; without even the implied warranty of
   MERCHANTABILITY or FITNESS FOR A PARTICULAR PURPOSE.
   
   FOR NON-COMMERCIAL, ACADEMIA USE ONLY.
   
   Cite this work as:
   S. Grimme, C. Bannwarth, P. Shushkov, J. Comput. Theory Chem., 2017,
   13, 1989-2009. DOI: 10.1021/acs.jctc.7b00118
   C. Bannwarth, S. Ehlert and S. Grimme., J. Comput. Theory Chem., 2019,
   just accepted. DOI: 10.1021/acs.jctc.8b01176
   
   for sTDA-xTB:
   S. Grimme and C. Bannwarth, J. Chem. Phys., 2016, 145, 054103.
   DOI: 10.1063/1.4959605
   
   in the mass-spec context:
   V. Asgeirsson, C. Bauer and S. Grimme, Chem. Sci., 2017, 8, 4879.
   DOI: 10.1039/c7sc00601b
   
   for metadynamics refer to:
   S. Grimme, J. Chem. Theory Comput. Article ASAP, 2019,
   DOI: 10.1021/acs.jctc.9b00143
   
   with help from (in alphabetical order)
   C. Bannwarth, F. Bohle, G. Brandenburg, E. Caldeweyher, M. Checinski,
   S. Dohm, S. Ehlert, S. Ehrlich, F. März, H. Neugebauer, J. Pisarek,
   P. Pracht, P. Shushkov, and S. Spicher.
   
 * started run on 2021/06/02 at 10:00:08.733     

           -------------------------------------------------
          |                Calculation Setup                |
           -------------------------------------------------

          program call               : /groups/kemi/koerstz/opt/xtb/6.1/bin/xtb path_point_18.xyz --gfn2 --acc 0.2 --chrg 0
          hostname                   : node305
          coordinate file            : path_point_18.xyz
          omp threads                :                     1
          number of atoms            :                     9
          number of electrons        :                    36
          charge                     :                     0
          spin                       :                   0.0
          first test random number   :      0.98394973745370


########################################################################
# WARNING! Please study the warnings concerning your input carefully
#  - XTBPATH is not set, using XTBHOME instead
########################################################################

           ------------------------------------------------- 
          |                 G F N 2 - x T B                 |
          | Geometry, Frequencies, Noncovalent interactions |
          |            JCTC 2018 parametrisation            |
           ------------------------------------------------- 
             k(s)              :                1.8500
             k(p)              :                2.2300
             k(d)              :                2.2300
             k(f)              :                2.0000
             kEN (H0ij)        :               -2.0000
             D4 a1             :                0.5200
             D4 a2             :                5.0000
             D4 s6             :                1.0000
             D4 s8             :                2.7000
             D4 s9             :                5.0000
             alphaj            :                2.0000

  Z AO/shell   Hii/eV     exponent
  1     Wed Apr 25 08:07:45 CEST 2018   EN: 2.200 GM2: 0.406  GM3: 0.0800  RAES: 1.40
     1s    -10.707211    1.230000
  6     Wed Apr 25 08:07:45 CEST 2018   EN: 2.550 GM2: 0.538  GM3: 0.1500  RAES: 3.00
     2s    -13.970922    2.096432
     2p    -10.063292    1.800000
  7     Wed Apr 25 08:07:45 CEST 2018   EN: 3.040 GM2: 0.461  GM3:-0.0640  RAES: 1.90
     2s    -16.686243    2.339881
     2p    -12.523956    2.014332
  8     Wed Apr 25 08:07:45 CEST 2018   EN: 3.440 GM2: 0.452  GM3:-0.0517  RAES: 1.80
     2s    -20.229985    2.439742
     2p    -15.503117    2.137023


            Z     q(EN)     CN     RAES       Cart. coordinates
     1  N   5.0   -0.42    2.02    1.90    -0.98662    -0.27851    -2.40771
     2  C   4.0    0.31    3.02    3.02    -0.82435    -1.59988    -0.37022
     3  N   5.0   -0.15    2.03    1.90    -2.90625    -2.15649     0.94302
     4  N   5.0   -0.15    1.00    1.90    -4.97409    -2.49099     1.42750
     5  O   6.0   -0.10    1.00    1.80     5.76922    -2.69688    -0.37022
     6  N   5.0   -0.14    2.01    1.90     3.52693    -2.43889    -0.63138
     7  C   4.0    0.13    3.01    3.02     1.56364    -2.34017     0.74858
     8  H   1.0    0.33    1.00    1.43    -2.72934     0.30879    -2.94661
     9  H   1.0    0.18    0.99    1.43     1.51564    -2.95918     2.70437

           ------------------------------------------------- 
          |        Self-Consistent Charge Iterations        |
           ------------------------------------------------- 
q/qsh data taken from xtbrestart
CAMM data taken from xtbrestart

          ...................................................
          :                      SETUP                      :
          :.................................................:
          :  # basis functions                  30          :
          :  # atomic orbitals                  30          :
          :  # shells                           16          :
          :  # electrons                        36          :
          :  max. iterations                   250          :
          :  Hamiltonian                  GFN2-xTB          :
          :  restarted?                       true          :
          :  GBSA solvation                  false          :
          :  PC potential                    false          :
          :  electronic temp.          300.0000000     K    :
          :  accuracy                    0.2000000          :
          :  -> integral cutoff          0.3198970E+02      :
          :  -> integral neglect         0.2000000E-08      :
          :  -> SCF convergence          0.2000000E-06 Eh   :
          :  -> wf. convergence          0.2000000E-04 e    :
          :  Broyden damping             0.4000000          :
          ...................................................

 iter      E             dE          RMSdq      gap      omega  full diag
   1    -20.9324732 -0.209325E+02  0.349E+00    0.51       0.0  T
   2    -18.8957859  0.203669E+01  0.118E+01    0.53       1.0  T
   3    -20.8211454 -0.192536E+01  0.480E+00    0.43       1.0  T
   4    -21.0572102 -0.236065E+00  0.128E+00    0.18       1.0  T
   5    -21.0216093  0.356009E-01  0.218E+00    0.16       1.0  T
   6    -21.0750185 -0.534093E-01  0.568E-01    0.16       1.0  T
   7    -21.0769648 -0.194633E-02  0.371E-01    0.15       1.0  T
   8    -21.0696701  0.729474E-02  0.873E-01    0.14       1.0  T
   9    -21.0775652 -0.789508E-02  0.357E-01    0.14       1.0  T
  10    -21.0784991 -0.933923E-03  0.209E-01    0.14       1.0  T
  11    -21.0789215 -0.422396E-03  0.895E-02    0.14       1.0  T
  12    -21.0790035 -0.819655E-04  0.336E-02    0.14       1.0  T
  13    -21.0790163 -0.127859E-04  0.941E-03    0.14       3.5  T
  14    -21.0790173 -0.107853E-05  0.160E-03    0.14      20.8  T
  15    -21.0790174 -0.241477E-07  0.262E-04    0.14     127.1  T
  16    -21.0790174 -0.449738E-09  0.163E-04    0.14     204.3  T
  17    -21.0790174  0.575433E-10  0.172E-04    0.14     193.8  T

   *** convergence criteria satisfied after 17 iterations ***

         #    Occupation            Energy/Eh            Energy/eV
      -------------------------------------------------------------
         1        2.0000           -0.7496402             -20.3987
       ...           ...                  ...                  ...
        12        2.0000           -0.5519159             -15.0184
        13        2.0000           -0.5227590             -14.2250
        14        2.0000           -0.5057525             -13.7622
        15        2.0000           -0.5042006             -13.7200
        16        2.0000           -0.4306672             -11.7191
        17        2.0000           -0.4252532             -11.5717
        18        1.8824           -0.3627795              -9.8717 (HOMO)
        19        0.1176           -0.3575110              -9.7284 (LUMO)
        20                         -0.3416029              -9.2955
        21                         -0.2798361              -7.6147
        22                         -0.1825357              -4.9670
        23                          0.0276701               0.7529
       ...                                ...                  ...
        30                          0.8459210              23.0187
      -------------------------------------------------------------
                  HL-Gap            0.0052685 Eh            0.1434 eV
             Fermi-level           -0.3601453 Eh           -9.8001 eV

 SCC (total)                   0 d,  0 h,  0 min,  0.008 sec
 SCC setup                      ...        0 min,  0.000 sec (  1.520%)
 Dispersion                     ...        0 min,  0.000 sec (  0.753%)
 integral evaluation            ...        0 min,  0.001 sec ( 12.835%)
 zeroth order Hamiltonian       ...        0 min,  0.000 sec (  0.376%)
 iterations                     ...        0 min,  0.005 sec ( 59.045%)
 molecular gradient             ...        0 min,  0.002 sec ( 23.167%)
 printout                       ...        0 min,  0.000 sec (  1.870%)

         :::::::::::::::::::::::::::::::::::::::::::::::::::::
         ::                     SUMMARY                     ::
         :::::::::::::::::::::::::::::::::::::::::::::::::::::
         :: total energy              -20.832446207265 Eh   ::
         :: gradient norm               0.024103454400 Eh/α ::
         :: HOMO-LUMO gap               0.143364440044 eV   ::
         ::.................................................::
         :: SCC energy                -21.079017359510 Eh   ::
         :: -> isotropic ES             0.026255143934 Eh   ::
         :: -> anisotropic ES           0.004222145901 Eh   ::
         :: -> anisotropic XC           0.024300242036 Eh   ::
         :: -> dispersion              -0.005514466193 Eh   ::
         :: repulsion energy            0.246570356570 Eh   ::
         :: add. restraining            0.000000000000 Eh   ::
         :::::::::::::::::::::::::::::::::::::::::::::::::::::

           -------------------------------------------------
          |                Property Printout                |
           -------------------------------------------------

    * Orbital Energies and Occupations

         #    Occupation            Energy/Eh            Energy/eV
      -------------------------------------------------------------
         1        2.0000           -0.7496402             -20.3987
       ...           ...                  ...                  ...
         6        2.0000           -0.6324204             -17.2090
         7        2.0000           -0.6142560             -16.7148
         8        2.0000           -0.6063481             -16.4996
         9        2.0000           -0.5931483             -16.1404
        10        2.0000           -0.5887049             -16.0195
        11        2.0000           -0.5668343             -15.4243
        12        2.0000           -0.5519159             -15.0184
        13        2.0000           -0.5227590             -14.2250
        14        2.0000           -0.5057525             -13.7622
        15        2.0000           -0.5042006             -13.7200
        16        2.0000           -0.4306672             -11.7191
        17        2.0000           -0.4252532             -11.5717
        18        1.8824           -0.3627795              -9.8717 (HOMO)
        19        0.1176           -0.3575110              -9.7284 (LUMO)
        20                         -0.3416029              -9.2955
        21                         -0.2798361              -7.6147
        22                         -0.1825357              -4.9670
        23                          0.0276701               0.7529
        24                          0.0537125               1.4616
        25                          0.1728219               4.7027
        26                          0.2021791               5.5016
        27                          0.3317639               9.0278
        28                          0.4608909              12.5415
        29                          0.6394977              17.4016
        30                          0.8459210              23.0187
      -------------------------------------------------------------
                  HL-Gap            0.0052685 Eh            0.1434 eV
             Fermi-level           -0.3601453 Eh           -9.8001 eV

   #   Z        covCN         q      C6AA      α(0)
   1   7 N      1.792    -0.307    28.790     7.948
   2   6 C      2.816     0.149    24.755     8.152
   3   7 N      1.917     0.134    19.575     6.560
   4   7 N      0.984    -0.092    22.681     6.850
   5   8 O      0.926    -0.263    19.107     5.862
   6   7 N      1.846     0.181    18.812     6.428
   7   6 C      2.832    -0.033    28.815     8.797
   8   1 H      0.860     0.157     1.353     1.822
   9   1 H      0.925     0.075     2.036     2.231

 Mol. C6AA /au·bohr⁶  :       1305.231964
 Mol. C8AA /au·bohr⁸  :      29818.829326
 Mol. α(0) /au        :         54.649135


Wiberg/Mayer (AO) data.
largest (>0.10) Wiberg bond orders for each atom
          total WBO             WBO to atom ...
     1  N   3.084        C    2 1.526    H    8 0.945    N    4 0.167    O    5 0.126    N    3 0.125    N    6 0.123
     2  C   3.932        N    1 1.526    N    3 1.133    C    7 1.078    N    4 0.116
     3  N   3.687        N    4 2.264    C    2 1.133    N    1 0.125
     4  N   2.758        N    3 2.264    N    1 0.167    N    6 0.152    C    2 0.116
     5  O   1.991        N    6 1.502    C    7 0.246    N    1 0.126
     6  N   3.480        C    7 1.589    O    5 1.502    N    4 0.152    N    1 0.123
     7  C   3.943        N    6 1.589    C    2 1.078    H    9 0.912    O    5 0.246
     8  H   0.975        N    1 0.945
     9  H   0.982        C    7 0.912

molecular dipole:
                 x           y           z       tot (Debye)
 q only:       -0.998      -0.038       0.375
   full:       -1.215      -0.063       0.632       3.486
molecular quadrupole (traceless):
                xx          xy          yy          xz          yz          zz
 q only:       -6.681       3.002       3.308       1.943      -1.091       3.373
  q+dip:       -9.061       2.451       4.625       4.707      -1.850       4.436
   full:      -10.203       2.369       5.824       5.295      -1.552       4.379


           -------------------------------------------------
          | TOTAL ENERGY              -20.832446207265 Eh   |
          | GRADIENT NORM               0.024103454400 Eh/α |
          | HOMO-LUMO GAP               0.143364440044 eV   |
           -------------------------------------------------

------------------------------------------------------------------------
 * finished run on 2021/06/02 at 10:00:08.749     
------------------------------------------------------------------------
 total:
 * wall-time:     0 d,  0 h,  0 min,  0.016 sec
 *  cpu-time:     0 d,  0 h,  0 min,  0.016 sec
 * ratio c/w:     0.987 speedup
 SCF:
 * wall-time:     0 d,  0 h,  0 min,  0.008 sec
 *  cpu-time:     0 d,  0 h,  0 min,  0.008 sec
 * ratio c/w:     1.000 speedup

