 Entering Gaussian System, Link 0=/software/kemi/g16/avx2/g16/g16
 Initial command:
 /software/kemi/g16/avx2/g16/l1.exe "/scratch/23935644/Gau-18295.inp" -scrdir="/scratch/23935644/"
 Entering Link 1 = /software/kemi/g16/avx2/g16/l1.exe PID=     18296.
  
 Copyright (c) 1988,1990,1992,1993,1995,1998,2003,2009,2016,
            Gaussian, Inc.  All Rights Reserved.
  
 This is part of the Gaussian(R) 16 program.  It is based on
 the Gaussian(R) 09 system (copyright 2009, Gaussian, Inc.),
 the Gaussian(R) 03 system (copyright 2003, Gaussian, Inc.),
 the Gaussian(R) 98 system (copyright 1998, Gaussian, Inc.),
 the Gaussian(R) 94 system (copyright 1995, Gaussian, Inc.),
 the Gaussian 92(TM) system (copyright 1992, Gaussian, Inc.),
 the Gaussian 90(TM) system (copyright 1990, Gaussian, Inc.),
 the Gaussian 88(TM) system (copyright 1988, Gaussian, Inc.),
 the Gaussian 86(TM) system (copyright 1986, Carnegie Mellon
 University), and the Gaussian 82(TM) system (copyright 1983,
 Carnegie Mellon University). Gaussian is a federally registered
 trademark of Gaussian, Inc.
  
 This software contains proprietary and confidential information,
 including trade secrets, belonging to Gaussian, Inc.
  
 This software is provided under written license and may be
 used, copied, transmitted, or stored only in accord with that
 written license.
  
 The following legend is applicable only to US Government
 contracts under FAR:
  
                    RESTRICTED RIGHTS LEGEND
  
 Use, reproduction and disclosure by the US Government is
 subject to restrictions as set forth in subparagraphs (a)
 and (c) of the Commercial Computer Software - Restricted
 Rights clause in FAR 52.227-19.
  
 Gaussian, Inc.
 340 Quinnipiac St., Bldg. 40, Wallingford CT 06492
  
  
 ---------------------------------------------------------------
 Warning -- This program may not be used in any manner that
 competes with the business of Gaussian, Inc. or will provide
 assistance to any competitor of Gaussian, Inc.  The licensee
 of this program is prohibited from giving any competitor of
 Gaussian, Inc. access to this program.  By using this program,
 the user acknowledges that Gaussian, Inc. is engaged in the
 business of creating and licensing software in the field of
 computational chemistry and represents and warrants to the
 licensee that it is not a competitor of Gaussian, Inc. and that
 it will not use this program in any manner prohibited above.
 ---------------------------------------------------------------
  

 Cite this work as:
 Gaussian 16, Revision A.03,
 M. J. Frisch, G. W. Trucks, H. B. Schlegel, G. E. Scuseria, 
 M. A. Robb, J. R. Cheeseman, G. Scalmani, V. Barone, 
 G. A. Petersson, H. Nakatsuji, X. Li, M. Caricato, A. V. Marenich, 
 J. Bloino, B. G. Janesko, R. Gomperts, B. Mennucci, H. P. Hratchian, 
 J. V. Ortiz, A. F. Izmaylov, J. L. Sonnenberg, D. Williams-Young, 
 F. Ding, F. Lipparini, F. Egidi, J. Goings, B. Peng, A. Petrone, 
 T. Henderson, D. Ranasinghe, V. G. Zakrzewski, J. Gao, N. Rega, 
 G. Zheng, W. Liang, M. Hada, M. Ehara, K. Toyota, R. Fukuda, 
 J. Hasegawa, M. Ishida, T. Nakajima, Y. Honda, O. Kitao, H. Nakai, 
 T. Vreven, K. Throssell, J. A. Montgomery, Jr., J. E. Peralta, 
 F. Ogliaro, M. J. Bearpark, J. J. Heyd, E. N. Brothers, K. N. Kudin, 
 V. N. Staroverov, T. A. Keith, R. Kobayashi, J. Normand, 
 K. Raghavachari, A. P. Rendell, J. C. Burant, S. S. Iyengar, 
 J. Tomasi, M. Cossi, J. M. Millam, M. Klene, C. Adamo, R. Cammi, 
 J. W. Ochterski, R. L. Martin, K. Morokuma, O. Farkas, 
 J. B. Foresman, and D. J. Fox, Gaussian, Inc., Wallingford CT, 2016.
 
 ******************************************
 Gaussian 16:  ES64L-G16RevA.03 25-Dec-2016
                23-Jun-2021 
 ******************************************
 %nprocshared=4
 Will use up to    4 processors via shared memory.
 %mem=8GB
 -----------------------------------------------------------------
 #irc=(forward, calcfc, maxpoint=100, stepsize=5) UwB97XD/Def2TZVP
 -----------------------------------------------------------------
 1/10=4,18=10,22=1,26=3,38=1,39=5,42=100,44=3,172=1/1,23;
 2/12=2,17=6,18=5,29=1,40=1/2;
 3/5=44,7=101,11=2,25=1,30=1,71=2,74=-58,116=2,140=1/1,2,3;
 4//1;
 5/5=2,38=5/2;
 8/6=4,10=90,11=11/1;
 11/6=1,8=1,9=11,15=111,16=1/1,2,10;
 10/6=1,13=1/2;
 6/7=2,8=2,9=2,10=2,28=1/1;
 7/10=1,18=20,25=1/1,2,3,16;
 1/10=4,18=10,22=1,26=3,39=5,42=100,44=3/23(2);
 2/29=1/2;
 99/5=20/99;
 2/29=1/2;
 3/5=44,7=101,11=2,25=1,30=1,71=2,74=-58,116=2,140=1/1,2,3;
 4/5=5,16=3,69=1/1;
 5/5=2,38=5/2;
 8/6=4,10=90,11=11/1;
 11/6=1,8=1,9=11,15=111,16=1/1,2,10;
 10/6=1,13=1/2;
 7/10=1,18=20,25=1/1,2,3,16;
 1/18=10,22=1,26=3,39=5,42=100,44=3/23(-8);
 2/29=1/2;
 6/7=2,8=2,9=2,10=2,19=2,28=1/1;
 99/5=20,9=1/99;
 ---------------
 something title
 ---------------
 Symbolic Z-matrix:
 Charge =  0 Multiplicity = 1
 N                     0.52002   1.77725   0. 
 C                     0.30195   0.57711   0.00001 
 N                    -2.77246  -0.62113   0. 
 N                    -3.68456  -0.02833   0. 
 O                     2.99529  -0.40129   0. 
 N                     1.80794  -0.57802  -0.00001 
 C                     0.57509  -0.79953   0.00001 
 H                    -0.28205   2.39878   0.00001 
 H                    -0.03903  -1.70231   0.00002 
 
 IRC-IRC-IRC-IRC-IRC-IRC-IRC-IRC-IRC-IRC-IRC-IRC-IRC-IRC-IRC-IRC-IRC-IRC
 ------------------------------------------------------------------------
 INPUT DATA FOR L123
 ------------------------------------------------------------------------
 GENERAL PARAMETERS:
 Rxn path following direction = Forward
 Maximum points per path      = 100
 Step size                    =   0.050 bohr
 Integration scheme           = HPC                                 
    Redo corrector integration= Yes                                 
    DWI Weight Power          =  2
    DWI will use Hessian update vectors when possible.
    Max correction cycles     =  20
 Initial Hessian              = CalcFC
 Hessian evaluation           = All updating
 Hessian updating method      = Bofill                              
 ------------------------------------------------------------------------
 IRC-IRC-IRC-IRC-IRC-IRC-IRC-IRC-IRC-IRC-IRC-IRC-IRC-IRC-IRC-IRC-IRC-IRC
                          Input orientation:                          
 ---------------------------------------------------------------------
 Center     Atomic      Atomic             Coordinates (Angstroms)
 Number     Number       Type             X           Y           Z
 ---------------------------------------------------------------------
      1          7           0        0.520020    1.777250    0.000000
      2          6           0        0.301950    0.577110    0.000010
      3          7           0       -2.772460   -0.621130    0.000000
      4          7           0       -3.684560   -0.028330    0.000000
      5          8           0        2.995290   -0.401290    0.000000
      6          7           0        1.807940   -0.578020   -0.000010
      7          6           0        0.575090   -0.799530    0.000010
      8          1           0       -0.282050    2.398780    0.000010
      9          1           0       -0.039030   -1.702310    0.000020
 ---------------------------------------------------------------------
                    Distance matrix (angstroms):
                    1          2          3          4          5
     1  N    0.000000
     2  C    1.219791   0.000000
     3  N    4.073408   3.299663   0.000000
     4  N    4.575873   4.032223   1.087814   0.000000
     5  O    3.297423   2.865545   5.771938   6.690254   0.000000
     6  N    2.684406   1.897981   4.580603   5.519938   1.200431
     7  C    2.577368   1.403475   3.352300   4.328899   2.452746
     8  H    1.014700   1.912992   3.914332   4.179466   4.310609
     9  H    3.524184   2.304783   2.939488   4.011496   3.301477
                    6          7          8          9
     6  N    0.000000
     7  C    1.252592   0.000000
     8  H    3.637224   3.311174   0.000000
     9  H    2.162250   1.091859   4.108284   0.000000
 Symmetry turned off by external request.
 Stoichiometry    C2H2N4O
 Framework group  C1[X(C2H2N4O)]
 Deg. of freedom    21
 Full point group                 C1      NOp   1
 Rotational constants (GHZ):           6.5395932           1.0190211           0.8816409
 Standard basis: def2TZVP (5D, 7F)
   229 basis functions,   373 primitive gaussians,   264 cartesian basis functions
    25 alpha electrons       25 beta electrons
       nuclear repulsion energy       232.9728566274 Hartrees.
 NAtoms=    9 NActive=    9 NUniq=    9 SFac= 1.00D+00 NAtFMM=   60 NAOKFM=F Big=F
 Integral buffers will be    131072 words long.
 Raffenetti 2 integral format.
 Two-electron integral symmetry is turned off.
 Nuclear repulsion after empirical dispersion term =      232.9705536795 Hartrees.
 One-electron integrals computed using PRISM.
   1 Symmetry operations used in ECPInt.
 ECPInt:  NShTT=    3655 NPrTT=   11788 LenC2=    3438 LenP2D=    8599.
 LDataN:  DoStor=T MaxTD1= 6 Len=  172
 NBasis=   229 RedAO= T EigKep=  1.42D-04  NBF=   229
 NBsUse=   229 1.00D-06 EigRej= -1.00D+00 NBFU=   229
 ExpMin= 9.52D-02 ExpMax= 2.70D+04 ExpMxC= 9.22D+02 IAcc=3 IRadAn=         5 AccDes= 0.00D+00
 Harris functional with IExCor= 4639 and IRadAn=       5 diagonalized for initial guess.
 HarFok:  IExCor= 4639 AccDes= 0.00D+00 IRadAn=         5 IDoV= 1 UseB2=F ITyADJ=14
 ICtDFT=  3500011 ScaDFX=  1.000000  1.000000  1.000000  1.000000
 FoFCou: FMM=F IPFlag=           0 FMFlag=      100000 FMFlg1=           0
         NFxFlg=           0 DoJE=T BraDBF=F KetDBF=T FulRan=T
         wScrn=  0.000000 ICntrl=       500 IOpCl=  0 I1Cent=   200000004 NGrid=           0
         NMat0=    1 NMatS0=      1 NMatT0=    0 NMatD0=    1 NMtDS0=    0 NMtDT0=    0
 Symmetry not used in FoFCou.
 Initial guess <Sx>= 0.0000 <Sy>= 0.0000 <Sz>= 0.0000 <S**2>=-0.0000 S=-0.0000
 Requested convergence on RMS density matrix=1.00D-08 within 128 cycles.
 Requested convergence on MAX density matrix=1.00D-06.
 Requested convergence on             energy=1.00D-06.
 No special actions if energy rises.
 Integral accuracy reduced to 1.0D-05 until final iterations.
 Initial convergence to 1.0D-05 achieved.  Increase integral accuracy.
 SCF Done:  E(UwB97XD) =  -371.472250060     A.U. after   20 cycles
            NFock= 20  Conv=0.32D-08     -V/T= 2.0039
 <Sx>= 0.0000 <Sy>= 0.0000 <Sz>= 0.0000 <S**2>=-0.0000 S=-0.0000
 <L.S>=  0.00000000000    
 Annihilation of the first spin contaminant:
 S**2 before annihilation    -0.0000,   after    -0.0000
 DoSCS=F DFT=T ScalE2(SS,OS)=  1.000000  1.000000
 Range of M.O.s used for correlation:     1   229
 NBasis=   229 NAE=    25 NBE=    25 NFC=     0 NFV=     0
 NROrb=    229 NOA=    25 NOB=    25 NVA=   204 NVB=   204

 **** Warning!!: The largest alpha MO coefficient is  0.19612107D+02


 **** Warning!!: The largest beta MO coefficient is  0.19612107D+02

   1 Symmetry operations used in ECPInt.
 ECPInt:  NShTT=    3655 NPrTT=   11788 LenC2=    3438 LenP2D=    8599.
 LDataN:  DoStor=T MaxTD1= 7 Len=  274
 Symmetrizing basis deriv contribution to polar:
 IMax=3 JMax=2 DiffMx= 0.00D+00
 G2DrvN: will do    10 centers at a time, making    1 passes.
 Calling FoFCou, ICntrl=  3107 FMM=F I1Cent=   0 AccDes= 0.00D+00.
 End of G2Drv F.D. properties file   721 does not exist.
 End of G2Drv F.D. properties file   722 does not exist.
 End of G2Drv F.D. properties file   788 does not exist.
          IDoAtm=111111111
          Differentiating once with respect to nuclear coordinates.
 CalDSu exits because no D1Ps are significant.
          There are    30 degrees of freedom in the 1st order CPHF.  IDoFFX=6 NUNeed=     0.
     24 vectors produced by pass  0 Test12= 3.40D-14 3.33D-09 XBig12= 1.92D-01 1.88D-01.
 AX will form    24 AO Fock derivatives at one time.
     24 vectors produced by pass  1 Test12= 3.40D-14 3.33D-09 XBig12= 7.10D-02 5.29D-02.
     24 vectors produced by pass  2 Test12= 3.40D-14 3.33D-09 XBig12= 5.21D-03 1.39D-02.
     24 vectors produced by pass  3 Test12= 3.40D-14 3.33D-09 XBig12= 9.76D-05 1.74D-03.
     24 vectors produced by pass  4 Test12= 3.40D-14 3.33D-09 XBig12= 1.17D-06 1.55D-04.
     24 vectors produced by pass  5 Test12= 3.40D-14 3.33D-09 XBig12= 1.02D-08 1.51D-05.
     24 vectors produced by pass  6 Test12= 3.40D-14 3.33D-09 XBig12= 8.08D-11 1.26D-06.
     18 vectors produced by pass  7 Test12= 3.40D-14 3.33D-09 XBig12= 4.80D-13 8.48D-08.
      3 vectors produced by pass  8 Test12= 3.40D-14 3.33D-09 XBig12= 3.35D-15 7.70D-09.
 InvSVY:  IOpt=1 It=  1 EMax= 1.67D-15
 Solved reduced A of dimension   189 with    24 vectors.
 End of Minotr F.D. properties file   721 does not exist.
 End of Minotr F.D. properties file   722 does not exist.
 End of Minotr F.D. properties file   788 does not exist.

 **********************************************************************

            Population analysis using the SCF density.

 **********************************************************************

 Alpha  occ. eigenvalues --  -19.29805 -14.57528 -14.55193 -14.54994 -14.46030
 Alpha  occ. eigenvalues --  -10.38815 -10.38636  -1.26526  -1.24928  -1.07352
 Alpha  occ. eigenvalues --   -1.01876  -0.74566  -0.69176  -0.66121  -0.63078
 Alpha  occ. eigenvalues --   -0.61416  -0.59073  -0.57471  -0.57429  -0.53887
 Alpha  occ. eigenvalues --   -0.52790  -0.47240  -0.45794  -0.35548  -0.26635
 Alpha virt. eigenvalues --    0.01695   0.02888   0.04280   0.05495   0.10338
 Alpha virt. eigenvalues --    0.12435   0.14334   0.17567   0.21776   0.24568
 Alpha virt. eigenvalues --    0.26508   0.27272   0.28503   0.32863   0.34055
 Alpha virt. eigenvalues --    0.35308   0.36329   0.37143   0.39534   0.41552
 Alpha virt. eigenvalues --    0.42728   0.45248   0.45803   0.47135   0.49241
 Alpha virt. eigenvalues --    0.49681   0.50985   0.52483   0.53477   0.55506
 Alpha virt. eigenvalues --    0.56679   0.62936   0.63636   0.64768   0.67799
 Alpha virt. eigenvalues --    0.69453   0.71178   0.71487   0.75616   0.79256
 Alpha virt. eigenvalues --    0.82585   0.84178   0.88886   0.90128   0.90254
 Alpha virt. eigenvalues --    0.91887   0.94428   1.02157   1.06779   1.08567
 Alpha virt. eigenvalues --    1.10487   1.16151   1.16409   1.21599   1.22621
 Alpha virt. eigenvalues --    1.23579   1.26066   1.27870   1.33122   1.33917
 Alpha virt. eigenvalues --    1.36533   1.42287   1.43671   1.45047   1.46185
 Alpha virt. eigenvalues --    1.54176   1.54454   1.56697   1.60020   1.61513
 Alpha virt. eigenvalues --    1.62759   1.70255   1.72192   1.74185   1.75043
 Alpha virt. eigenvalues --    1.76241   1.79257   1.83925   1.92541   1.95544
 Alpha virt. eigenvalues --    1.98592   2.00036   2.02487   2.04551   2.06591
 Alpha virt. eigenvalues --    2.07590   2.08719   2.12203   2.17310   2.18586
 Alpha virt. eigenvalues --    2.19485   2.22958   2.27270   2.30434   2.33508
 Alpha virt. eigenvalues --    2.37104   2.39807   2.43039   2.54313   2.58959
 Alpha virt. eigenvalues --    2.61398   2.61452   2.64584   2.68944   2.78314
 Alpha virt. eigenvalues --    2.79446   2.82981   2.83400   2.86682   2.90829
 Alpha virt. eigenvalues --    2.92812   2.94099   2.95235   3.03360   3.04084
 Alpha virt. eigenvalues --    3.06176   3.10935   3.17433   3.19810   3.21530
 Alpha virt. eigenvalues --    3.29546   3.33368   3.39689   3.46188   3.53542
 Alpha virt. eigenvalues --    3.54233   3.54722   3.57229   3.59323   3.66665
 Alpha virt. eigenvalues --    3.66760   3.68696   3.71000   3.73296   3.75184
 Alpha virt. eigenvalues --    3.81591   3.96329   4.00652   4.03722   4.08413
 Alpha virt. eigenvalues --    4.10273   4.15766   4.15791   4.21931   4.23297
 Alpha virt. eigenvalues --    4.24010   4.31562   4.34419   4.42325   4.43479
 Alpha virt. eigenvalues --    4.52266   4.54205   4.55748   4.57241   4.58362
 Alpha virt. eigenvalues --    4.59897   4.60924   4.64543   4.65610   4.70856
 Alpha virt. eigenvalues --    4.73202   4.73994   4.84139   4.88532   4.98977
 Alpha virt. eigenvalues --    5.00620   5.00662   5.07939   5.07963   5.09354
 Alpha virt. eigenvalues --    5.09392   5.12868   5.21956   5.23172   5.23234
 Alpha virt. eigenvalues --    5.25378   5.36076   5.57519   5.58610   5.64411
 Alpha virt. eigenvalues --    5.69787   5.73006   5.76300   5.97323   6.05144
 Alpha virt. eigenvalues --    6.27090   6.34983   6.35096   6.36473   6.37208
 Alpha virt. eigenvalues --    6.61288   6.68281   6.77474   7.08437   7.17740
 Alpha virt. eigenvalues --    7.38064   7.64431  22.76328  23.05177  31.34653
 Alpha virt. eigenvalues --   32.14705  32.18255  32.68100  44.18142
  Beta  occ. eigenvalues --  -19.29805 -14.57528 -14.55193 -14.54994 -14.46030
  Beta  occ. eigenvalues --  -10.38815 -10.38636  -1.26526  -1.24928  -1.07352
  Beta  occ. eigenvalues --   -1.01876  -0.74566  -0.69176  -0.66121  -0.63078
  Beta  occ. eigenvalues --   -0.61416  -0.59073  -0.57471  -0.57429  -0.53887
  Beta  occ. eigenvalues --   -0.52790  -0.47240  -0.45794  -0.35548  -0.26635
  Beta virt. eigenvalues --    0.01695   0.02888   0.04280   0.05495   0.10338
  Beta virt. eigenvalues --    0.12435   0.14334   0.17567   0.21776   0.24568
  Beta virt. eigenvalues --    0.26508   0.27272   0.28503   0.32863   0.34055
  Beta virt. eigenvalues --    0.35308   0.36329   0.37143   0.39534   0.41552
  Beta virt. eigenvalues --    0.42728   0.45248   0.45803   0.47135   0.49241
  Beta virt. eigenvalues --    0.49681   0.50985   0.52483   0.53477   0.55506
  Beta virt. eigenvalues --    0.56679   0.62936   0.63636   0.64768   0.67799
  Beta virt. eigenvalues --    0.69453   0.71178   0.71487   0.75616   0.79256
  Beta virt. eigenvalues --    0.82585   0.84178   0.88886   0.90128   0.90254
  Beta virt. eigenvalues --    0.91887   0.94428   1.02157   1.06779   1.08567
  Beta virt. eigenvalues --    1.10487   1.16151   1.16409   1.21599   1.22621
  Beta virt. eigenvalues --    1.23579   1.26066   1.27870   1.33122   1.33917
  Beta virt. eigenvalues --    1.36533   1.42287   1.43671   1.45047   1.46185
  Beta virt. eigenvalues --    1.54176   1.54454   1.56697   1.60020   1.61513
  Beta virt. eigenvalues --    1.62759   1.70255   1.72192   1.74185   1.75043
  Beta virt. eigenvalues --    1.76241   1.79257   1.83925   1.92541   1.95544
  Beta virt. eigenvalues --    1.98592   2.00036   2.02487   2.04551   2.06591
  Beta virt. eigenvalues --    2.07590   2.08719   2.12203   2.17310   2.18586
  Beta virt. eigenvalues --    2.19485   2.22958   2.27270   2.30434   2.33508
  Beta virt. eigenvalues --    2.37104   2.39807   2.43039   2.54313   2.58959
  Beta virt. eigenvalues --    2.61398   2.61452   2.64584   2.68944   2.78314
  Beta virt. eigenvalues --    2.79446   2.82981   2.83400   2.86682   2.90829
  Beta virt. eigenvalues --    2.92812   2.94099   2.95235   3.03360   3.04084
  Beta virt. eigenvalues --    3.06176   3.10935   3.17433   3.19810   3.21530
  Beta virt. eigenvalues --    3.29546   3.33368   3.39689   3.46188   3.53542
  Beta virt. eigenvalues --    3.54233   3.54722   3.57229   3.59323   3.66665
  Beta virt. eigenvalues --    3.66760   3.68696   3.71000   3.73296   3.75184
  Beta virt. eigenvalues --    3.81591   3.96329   4.00652   4.03722   4.08413
  Beta virt. eigenvalues --    4.10273   4.15766   4.15791   4.21931   4.23297
  Beta virt. eigenvalues --    4.24010   4.31562   4.34419   4.42325   4.43479
  Beta virt. eigenvalues --    4.52266   4.54205   4.55748   4.57241   4.58362
  Beta virt. eigenvalues --    4.59897   4.60924   4.64543   4.65610   4.70856
  Beta virt. eigenvalues --    4.73202   4.73994   4.84139   4.88532   4.98977
  Beta virt. eigenvalues --    5.00620   5.00662   5.07939   5.07963   5.09354
  Beta virt. eigenvalues --    5.09392   5.12868   5.21956   5.23172   5.23234
  Beta virt. eigenvalues --    5.25378   5.36076   5.57519   5.58610   5.64411
  Beta virt. eigenvalues --    5.69787   5.73006   5.76300   5.97323   6.05144
  Beta virt. eigenvalues --    6.27090   6.34983   6.35096   6.36473   6.37208
  Beta virt. eigenvalues --    6.61288   6.68281   6.77474   7.08437   7.17740
  Beta virt. eigenvalues --    7.38064   7.64431  22.76328  23.05177  31.34653
  Beta virt. eigenvalues --   32.14705  32.18255  32.68100  44.18142
          Condensed to atoms (all electrons):
               1          2          3          4          5          6
     1  N    6.341937   0.621406  -0.001598   0.000307   0.004483  -0.020635
     2  C    0.621406   5.290862   0.001730  -0.001851  -0.003883  -0.061474
     3  N   -0.001598   0.001730   6.323658   0.660093  -0.000001  -0.000161
     4  N    0.000307  -0.001851   0.660093   6.352733  -0.000000   0.000014
     5  O    0.004483  -0.003883  -0.000001  -0.000000   8.050926   0.320503
     6  N   -0.020635  -0.061474  -0.000161   0.000014   0.320503   5.988588
     7  C   -0.058145   0.397619  -0.000204  -0.000090  -0.054358   0.550654
     8  H    0.365040  -0.109494  -0.000245   0.000421  -0.001345   0.008328
     9  H    0.010176  -0.100286   0.002485   0.000497   0.004576  -0.036473
               7          8          9
     1  N   -0.058145   0.365040   0.010176
     2  C    0.397619  -0.109494  -0.100286
     3  N   -0.000204  -0.000245   0.002485
     4  N   -0.000090   0.000421   0.000497
     5  O   -0.054358  -0.001345   0.004576
     6  N    0.550654   0.008328  -0.036473
     7  C    4.848475   0.004002   0.343336
     8  H    0.004002   0.466186   0.001990
     9  H    0.343336   0.001990   0.641808
          Atomic-Atomic Spin Densities.
               1          2          3          4          5          6
     1  N   -0.000000   0.000000   0.000000  -0.000000   0.000000  -0.000000
     2  C    0.000000   0.000000  -0.000000   0.000000  -0.000000   0.000000
     3  N    0.000000  -0.000000   0.000000  -0.000000  -0.000000  -0.000000
     4  N   -0.000000   0.000000  -0.000000   0.000000   0.000000  -0.000000
     5  O    0.000000  -0.000000  -0.000000   0.000000   0.000000  -0.000000
     6  N   -0.000000   0.000000  -0.000000  -0.000000  -0.000000   0.000000
     7  C   -0.000000  -0.000000   0.000000   0.000000   0.000000  -0.000000
     8  H   -0.000000   0.000000   0.000000  -0.000000   0.000000  -0.000000
     9  H   -0.000000  -0.000000   0.000000  -0.000000   0.000000  -0.000000
               7          8          9
     1  N   -0.000000  -0.000000  -0.000000
     2  C   -0.000000   0.000000  -0.000000
     3  N    0.000000   0.000000   0.000000
     4  N    0.000000  -0.000000  -0.000000
     5  O    0.000000   0.000000   0.000000
     6  N   -0.000000  -0.000000  -0.000000
     7  C   -0.000000   0.000000   0.000000
     8  H    0.000000   0.000000   0.000000
     9  H    0.000000   0.000000   0.000000
 Mulliken charges and spin densities:
               1          2
     1  N   -0.262969   0.000000
     2  C   -0.034628   0.000000
     3  N    0.014244   0.000000
     4  N   -0.012123  -0.000000
     5  O   -0.320900   0.000000
     6  N    0.250655  -0.000000
     7  C   -0.031287  -0.000000
     8  H    0.265117   0.000000
     9  H    0.131891   0.000000
 Sum of Mulliken charges =  -0.00000  -0.00000
 Mulliken charges and spin densities with hydrogens summed into heavy atoms:
               1          2
     1  N    0.002148   0.000000
     2  C   -0.034628   0.000000
     3  N    0.014244   0.000000
     4  N   -0.012123  -0.000000
     5  O   -0.320900   0.000000
     6  N    0.250655  -0.000000
     7  C    0.100604  -0.000000
 APT charges:
               1
     1  N   -0.289139
     2  C   -0.372404
     3  N   -1.287613
     4  N    1.289843
     5  O    0.109143
     6  N    0.167967
     7  C   -0.551435
     8  H    0.594503
     9  H    0.339135
 Sum of APT charges =  -0.00000
 APT charges with hydrogens summed into heavy atoms:
               1
     1  N    0.305364
     2  C   -0.372404
     3  N   -1.287613
     4  N    1.289843
     5  O    0.109143
     6  N    0.167967
     7  C   -0.212299
 Electronic spatial extent (au):  <R**2>=           1130.0729
 Charge=             -0.0000 electrons
 Dipole moment (field-independent basis, Debye):
    X=             -3.8387    Y=             -0.5933    Z=              0.0000  Tot=              3.8843
 Quadrupole moment (field-independent basis, Debye-Ang):
   XX=            -48.6454   YY=            -35.6308   ZZ=            -38.3283
   XY=             -1.9743   XZ=             -0.0000   YZ=              0.0000
 Traceless Quadrupole moment (field-independent basis, Debye-Ang):
   XX=             -7.7772   YY=              5.2373   ZZ=              2.5399
   XY=             -1.9743   XZ=             -0.0000   YZ=              0.0000
 Octapole moment (field-independent basis, Debye-Ang**2):
  XXX=            -25.0948  YYY=              2.3649  ZZZ=             -0.0002  XYY=             -7.8230
  XXY=             -3.6685  XXZ=             -0.0001  XZZ=              0.5269  YZZ=             -1.0142
  YYZ=              0.0001  XYZ=              0.0000
 Hexadecapole moment (field-independent basis, Debye-Ang**3):
 XXXX=          -1258.1565 YYYY=           -202.9780 ZZZZ=            -35.3046 XXXY=             26.0043
 XXXZ=              0.0003 YYYX=            -22.2533 YYYZ=              0.0002 ZZZX=              0.0001
 ZZZY=              0.0000 XXYY=           -230.8996 XXZZ=           -186.9105 YYZZ=            -46.2845
 XXYZ=              0.0000 YYXZ=              0.0000 ZZXY=             -1.7504
 N-N= 2.329705536795D+02 E-N=-1.335279301902D+03  KE= 3.700400911604D+02
  Exact polarizability:   0.000   0.000   0.000   0.000   0.000   0.000
 Approx polarizability: 111.910 -25.713  82.247  -0.000   0.000  35.392
                          Isotropic Fermi Contact Couplings
        Atom                 a.u.       MegaHertz       Gauss      10(-4) cm-1
     1  N(14)             -0.00000      -0.00000      -0.00000      -0.00000
     2  C(13)             -0.00000      -0.00000      -0.00000      -0.00000
     3  N(14)              0.00000       0.00000       0.00000       0.00000
     4  N(14)             -0.00000      -0.00000      -0.00000      -0.00000
     5  O(17)              0.00000      -0.00000      -0.00000      -0.00000
     6  N(14)             -0.00000      -0.00000      -0.00000      -0.00000
     7  C(13)              0.00000       0.00000       0.00000       0.00000
     8  H(1)              -0.00000      -0.00000      -0.00000      -0.00000
     9  H(1)              -0.00000      -0.00000      -0.00000      -0.00000
 --------------------------------------------------------
       Center         ----  Spin Dipole Couplings  ----
                      3XX-RR        3YY-RR        3ZZ-RR
 --------------------------------------------------------
     1   Atom       -0.000000     -0.000000      0.000000
     2   Atom       -0.000000      0.000000     -0.000000
     3   Atom        0.000000      0.000000     -0.000000
     4   Atom        0.000000     -0.000000     -0.000000
     5   Atom        0.000000      0.000000     -0.000000
     6   Atom       -0.000000      0.000000     -0.000000
     7   Atom        0.000000     -0.000000      0.000000
     8   Atom        0.000000     -0.000000      0.000000
     9   Atom        0.000000     -0.000000     -0.000000
 --------------------------------------------------------
                        XY            XZ            YZ
 --------------------------------------------------------
     1   Atom       -0.000000     -0.000000      0.000000
     2   Atom       -0.000000      0.000000     -0.000000
     3   Atom       -0.000000      0.000000     -0.000000
     4   Atom       -0.000000     -0.000000      0.000000
     5   Atom       -0.000000      0.000000      0.000000
     6   Atom       -0.000000     -0.000000      0.000000
     7   Atom        0.000000      0.000000      0.000000
     8   Atom        0.000000      0.000000     -0.000000
     9   Atom        0.000000      0.000000      0.000000
 --------------------------------------------------------


 ---------------------------------------------------------------------------------
              Anisotropic Spin Dipole Couplings in Principal Axis System
 ---------------------------------------------------------------------------------

       Atom             a.u.   MegaHertz   Gauss  10(-4) cm-1        Axes

              Baa    -0.0000    -0.000    -0.000    -0.000  0.3389  0.9408 -0.0016
     1 N(14)  Bbb    -0.0000    -0.000    -0.000    -0.000  0.9408 -0.3388  0.0052
              Bcc     0.0000     0.000     0.000     0.000 -0.0043  0.0033  1.0000
 
              Baa    -0.0000    -0.000    -0.000    -0.000  0.9825  0.1860 -0.0041
     2 C(13)  Bbb    -0.0000    -0.000    -0.000    -0.000  0.0032  0.0054  1.0000
              Bcc     0.0000     0.000     0.000     0.000 -0.1860  0.9825 -0.0047
 
              Baa    -0.0000    -0.000    -0.000    -0.000  0.6132  0.7896  0.0211
     3 N(14)  Bbb    -0.0000    -0.000    -0.000    -0.000 -0.0154 -0.0148  0.9998
              Bcc     0.0000     0.000     0.000     0.000  0.7897 -0.6134  0.0030
 
              Baa    -0.0000    -0.000    -0.000    -0.000 -0.0222 -0.0444  0.9988
     4 N(14)  Bbb    -0.0000    -0.000    -0.000    -0.000  0.5293  0.8470  0.0494
              Bcc     0.0000     0.000     0.000     0.000  0.8481 -0.5298 -0.0047
 
              Baa    -0.0000     0.000     0.000     0.000 -0.0097 -0.0026  0.9999
     5 O(17)  Bbb     0.0000    -0.000    -0.000    -0.000  0.5379  0.8430  0.0074
              Bcc     0.0000    -0.000    -0.000    -0.000  0.8429 -0.5380  0.0068
 
              Baa    -0.0000    -0.000    -0.000    -0.000  0.9977  0.0606  0.0295
     6 N(14)  Bbb    -0.0000    -0.000    -0.000    -0.000 -0.0293 -0.0047  0.9996
              Bcc     0.0000     0.000     0.000     0.000 -0.0607  0.9982  0.0030
 
              Baa    -0.0000    -0.000    -0.000    -0.000 -0.1411  0.9900 -0.0052
     7 C(13)  Bbb     0.0000     0.000     0.000     0.000 -0.0309  0.0008  0.9995
              Bcc     0.0000     0.000     0.000     0.000  0.9895  0.1412  0.0305
 
              Baa    -0.0000    -0.000    -0.000    -0.000 -0.5293  0.8484  0.0040
     8 H(1)   Bbb     0.0000     0.000     0.000     0.000 -0.0601 -0.0422  0.9973
              Bcc     0.0000     0.000     0.000     0.000  0.8463  0.5276  0.0733
 
              Baa    -0.0000    -0.000    -0.000    -0.000 -0.5862  0.8100 -0.0180
     9 H(1)   Bbb    -0.0000    -0.000    -0.000    -0.000 -0.0210  0.0071  0.9998
              Bcc     0.0000     0.000     0.000     0.000  0.8099  0.5864  0.0129
 

 ---------------------------------------------------------------------------------

   1 Symmetry operations used in ECPInt.
 ECPInt:  NShTT=    3655 NPrTT=   11788 LenC2=    3438 LenP2D=    8599.
 LDataN:  DoStor=T MaxTD1= 8 Len=  415
 Calling FoFJK, ICntrl=    100147 FMM=F ISym2X=0 I1Cent= 0 IOpClX= 1 NMat=1 NMatS=1 NMatT=0.
 -------------------------------------------------------------------
 Center     Atomic                   Forces (Hartrees/Bohr)
 Number     Number              X              Y              Z
 -------------------------------------------------------------------
      1        7           0.000001947    0.000014768    0.000000263
      2        6           0.000153760    0.000080614   -0.000000649
      3        7          -0.000060492   -0.000087626    0.000000022
      4        7           0.000007015    0.000015036   -0.000000009
      5        8          -0.000022936    0.000024119   -0.000001490
      6        7          -0.000015219   -0.000013437    0.000002817
      7        6           0.000007827   -0.000045124   -0.000000938
      8        1          -0.000013734    0.000001716    0.000000043
      9        1          -0.000058168    0.000009934   -0.000000058
 -------------------------------------------------------------------
 Cartesian Forces:  Max     0.000153760 RMS     0.000042721
 IRC-IRC-IRC-IRC-IRC-IRC-IRC-IRC-IRC-IRC-IRC-IRC-IRC-IRC-IRC-IRC-IRC-IRC
          ******** Start new reaction path calculation ********
 Supplied step size of   0.0500 bohr.
    Integration on MW PES will use step size of   0.1525 sqrt(amu)*bohr.
 Point Number:   0          Path Number:   1
 Calculating another point on the path.
 IRC-IRC-IRC-IRC-IRC-IRC-IRC-IRC-IRC-IRC-IRC-IRC-IRC-IRC-IRC-IRC-IRC-IRC
                          Input orientation:                          
 ---------------------------------------------------------------------
 Center     Atomic      Atomic             Coordinates (Angstroms)
 Number     Number       Type             X           Y           Z
 ---------------------------------------------------------------------
      1          7           0        0.520326    1.783616   -0.000002
      2          6           0        0.287115    0.587412    0.000009
      3          7           0       -2.775448   -0.614197   -0.000001
      4          7           0       -3.687500   -0.021298   -0.000001
      5          8           0        2.992095   -0.388045   -0.000001
      6          7           0        1.809127   -0.585750   -0.000011
      7          6           0        0.574716   -0.787391    0.000009
      8          1           0       -0.274488    2.414334    0.000009
      9          1           0       -0.041693   -1.688455    0.000017
 ---------------------------------------------------------------------
                    Distance matrix (angstroms):
                    1          2          3          4          5
     1  N    0.000000
     2  C    1.218726   0.000000
     3  N    4.075737   3.289856   0.000000
     4  N    4.578594   4.020957   1.087828   0.000000
     5  O    3.290251   2.875489   5.771975   6.689656   0.000000
     6  N    2.697203   1.921674   4.584663   5.525534   1.199375
     7  C    2.571582   1.404563   3.354638   4.330518   2.450142
     8  H    1.014660   1.911293   3.927696   4.192965   4.303939
     9  H    3.517264   2.299497   2.937251   4.008905   3.300748
                    6          7          8          9
     6  N    0.000000
     7  C    1.250772   0.000000
     8  H    3.652664   3.312429   0.000000
     9  H    2.154413   1.091732   4.109388   0.000000
 Symmetry turned off by external request.
 Stoichiometry    C2H2N4O
 Framework group  C1[X(C2H2N4O)]
 Deg. of freedom    21
 Full point group                 C1      NOp   1
 Rotational constants (GHZ):           6.5313729           1.0186495           0.8812132
 Standard basis: def2TZVP (5D, 7F)
   229 basis functions,   373 primitive gaussians,   264 cartesian basis functions
    25 alpha electrons       25 beta electrons
       nuclear repulsion energy       232.8732232469 Hartrees.
 NAtoms=    9 NActive=    9 NUniq=    9 SFac= 1.00D+00 NAtFMM=   60 NAOKFM=F Big=F
 Integral buffers will be    131072 words long.
 Raffenetti 2 integral format.
 Two-electron integral symmetry is turned off.
 Nuclear repulsion after empirical dispersion term =      232.8709194276 Hartrees.
 One-electron integrals computed using PRISM.
   1 Symmetry operations used in ECPInt.
 ECPInt:  NShTT=    3655 NPrTT=   11788 LenC2=    3439 LenP2D=    8599.
 LDataN:  DoStor=T MaxTD1= 6 Len=  172
 NBasis=   229 RedAO= T EigKep=  1.48D-04  NBF=   229
 NBsUse=   229 1.00D-06 EigRej= -1.00D+00 NBFU=   229
 Initial guess from the checkpoint file:  "/scratch/23935644/Gau-18296.chk"
 B after Tr=    -0.005403    0.013539   -0.000003
         Rot=    1.000000   -0.000000   -0.000000    0.000023 Ang=  -0.00 deg.
 Initial guess <Sx>= 0.0000 <Sy>= 0.0000 <Sz>= 0.0000 <S**2>= 0.0000 S= 0.0000
 ExpMin= 9.52D-02 ExpMax= 2.70D+04 ExpMxC= 9.22D+02 IAcc=2 IRadAn=         4 AccDes= 0.00D+00
 Harris functional with IExCor= 4639 and IRadAn=       4 diagonalized for initial guess.
 HarFok:  IExCor= 4639 AccDes= 0.00D+00 IRadAn=         4 IDoV= 1 UseB2=F ITyADJ=14
 ICtDFT=  3500011 ScaDFX=  1.000000  1.000000  1.000000  1.000000
 FoFCou: FMM=F IPFlag=           0 FMFlag=      100000 FMFlg1=           0
         NFxFlg=           0 DoJE=T BraDBF=F KetDBF=T FulRan=T
         wScrn=  0.000000 ICntrl=       500 IOpCl=  0 I1Cent=   200000004 NGrid=           0
         NMat0=    1 NMatS0=      1 NMatT0=    0 NMatD0=    1 NMtDS0=    0 NMtDT0=    0
 Symmetry not used in FoFCou.
 Requested convergence on RMS density matrix=1.00D-08 within 128 cycles.
 Requested convergence on MAX density matrix=1.00D-06.
 Requested convergence on             energy=1.00D-06.
 No special actions if energy rises.
 Integral accuracy reduced to 1.0D-05 until final iterations.
 Initial convergence to 1.0D-05 achieved.  Increase integral accuracy.
 SCF Done:  E(UwB97XD) =  -371.472445040     A.U. after   15 cycles
            NFock= 15  Conv=0.79D-08     -V/T= 2.0038
 <Sx>= 0.0000 <Sy>= 0.0000 <Sz>= 0.0000 <S**2>=-0.0000 S=-0.0000
 <L.S>=  0.00000000000    
 Annihilation of the first spin contaminant:
 S**2 before annihilation    -0.0000,   after     0.0000
 DoSCS=F DFT=T ScalE2(SS,OS)=  1.000000  1.000000
 Range of M.O.s used for correlation:     1   229
 NBasis=   229 NAE=    25 NBE=    25 NFC=     0 NFV=     0
 NROrb=    229 NOA=    25 NOB=    25 NVA=   204 NVB=   204

 **** Warning!!: The largest alpha MO coefficient is  0.19615831D+02


 **** Warning!!: The largest beta MO coefficient is  0.19615831D+02

 Symmetrizing basis deriv contribution to polar:
 IMax=3 JMax=2 DiffMx= 0.00D+00
   1 Symmetry operations used in ECPInt.
 ECPInt:  NShTT=    3655 NPrTT=   11788 LenC2=    3439 LenP2D=    8599.
 LDataN:  DoStor=T MaxTD1= 7 Len=  274
 Calling FoFJK, ICntrl=      2147 FMM=F ISym2X=0 I1Cent= 0 IOpClX= 1 NMat=1 NMatS=1 NMatT=0.
 -------------------------------------------------------------------
 Center     Atomic                   Forces (Hartrees/Bohr)
 Number     Number              X              Y              Z
 -------------------------------------------------------------------
      1        7           0.001319839   -0.000386599    0.000000198
      2        6          -0.004193131    0.001525872   -0.000000479
      3        7          -0.000066190   -0.000122486    0.000000021
      4        7           0.000018558    0.000022291   -0.000000009
      5        8          -0.000495434    0.003242460   -0.000001487
      6        7           0.002167295   -0.006652956    0.000002781
      7        6           0.000875566    0.001857407   -0.000000984
      8        1           0.000385680    0.000247768    0.000000062
      9        1          -0.000012183    0.000266241   -0.000000104
 -------------------------------------------------------------------
 Cartesian Forces:  Max     0.006652956 RMS     0.001785103
 IRC-IRC-IRC-IRC-IRC-IRC-IRC-IRC-IRC-IRC-IRC-IRC-IRC-IRC-IRC-IRC-IRC-IRC
 Pt  1 Step number   1 out of a maximum of  20
 Modified Bulirsch-Stoer Extrapolation Cycles:
    EPS =    0.000010000000000
      PEZero:  N= 2 I= 1 D=  3.97D-04 Err=  8.29D-04
      PEZero:  N= 3 I= 2 D=  3.97D-04 Err=  5.53D-04
      PEZero:  N= 3 I= 1 D=  7.94D-04 Err=  9.19D-08
 Maximum DWI energy   std dev =  0.000000225 at pt    59
 Maximum DWI gradient std dev =  0.035632702 at pt     1
 CORRECTOR INTEGRATION CONVERGENCE:
   Recorrection delta-x convergence threshold:    0.010000
   Delta-x Convergence Met
 Point Number:   1          Path Number:   1
   CHANGE IN THE REACTION COORDINATE =    0.15245
   NET REACTION COORDINATE UP TO THIS POINT =    0.15245
  # OF POINTS ALONG THE PATH =   1
  # OF STEPS =   1

 Calculating another point on the path.
 IRC-IRC-IRC-IRC-IRC-IRC-IRC-IRC-IRC-IRC-IRC-IRC-IRC-IRC-IRC-IRC-IRC-IRC
                          Input orientation:                          
 ---------------------------------------------------------------------
 Center     Atomic      Atomic             Coordinates (Angstroms)
 Number     Number       Type             X           Y           Z
 ---------------------------------------------------------------------
      1          7           0        0.523545    1.783046   -0.000001
      2          6           0        0.276164    0.590852    0.000008
      3          7           0       -2.775648   -0.614544   -0.000001
      4          7           0       -3.687453   -0.021237   -0.000001
      5          8           0        2.991510   -0.381544   -0.000004
      6          7           0        1.813369   -0.600887   -0.000006
      7          6           0        0.577045   -0.782156    0.000006
      8          1           0       -0.263787    2.422960    0.000009
      9          1           0       -0.041908   -1.681189    0.000012
 ---------------------------------------------------------------------
                    Distance matrix (angstroms):
                    1          2          3          4          5
     1  N    0.000000
     2  C    1.217590   0.000000
     3  N    4.078371   3.281240   0.000000
     4  N    4.581260   4.010600   1.087842   0.000000
     5  O    3.282728   2.884208   5.771863   6.688674   0.000000
     6  N    2.710495   1.945055   4.589037   5.531278   1.198385
     7  C    2.565760   1.405589   3.356881   4.331852   2.447474
     8  H    1.014585   1.910018   3.941558   4.206613   4.296766
     9  H    3.510080   2.294197   2.934462   4.005676   3.300106
                    6          7          8          9
     6  N    0.000000
     7  C    1.249542   0.000000
     8  H    3.668546   3.313574   0.000000
     9  H    2.146882   1.091496   4.110143   0.000000
 Symmetry turned off by external request.
 Stoichiometry    C2H2N4O
 Framework group  C1[X(C2H2N4O)]
 Deg. of freedom    21
 Full point group                 C1      NOp   1
 Rotational constants (GHZ):           6.5215543           1.0183024           0.8807746
 Standard basis: def2TZVP (5D, 7F)
   229 basis functions,   373 primitive gaussians,   264 cartesian basis functions
    25 alpha electrons       25 beta electrons
       nuclear repulsion energy       232.7719875094 Hartrees.
 NAtoms=    9 NActive=    9 NUniq=    9 SFac= 1.00D+00 NAtFMM=   60 NAOKFM=F Big=F
 Integral buffers will be    131072 words long.
 Raffenetti 2 integral format.
 Two-electron integral symmetry is turned off.
 Nuclear repulsion after empirical dispersion term =      232.7696828186 Hartrees.
 One-electron integrals computed using PRISM.
   1 Symmetry operations used in ECPInt.
 ECPInt:  NShTT=    3655 NPrTT=   11788 LenC2=    3439 LenP2D=    8599.
 LDataN:  DoStor=T MaxTD1= 6 Len=  172
 NBasis=   229 RedAO= T EigKep=  1.54D-04  NBF=   229
 NBsUse=   229 1.00D-06 EigRej= -1.00D+00 NBFU=   229
 Initial guess from the checkpoint file:  "/scratch/23935644/Gau-18296.chk"
 B after Tr=     0.000197    0.000302   -0.000000
         Rot=    1.000000   -0.000000   -0.000000    0.000024 Ang=  -0.00 deg.
 Initial guess <Sx>= 0.0000 <Sy>= 0.0000 <Sz>= 0.0000 <S**2>=-0.0000 S=-0.0000
 ExpMin= 9.52D-02 ExpMax= 2.70D+04 ExpMxC= 9.22D+02 IAcc=2 IRadAn=         4 AccDes= 0.00D+00
 Harris functional with IExCor= 4639 and IRadAn=       4 diagonalized for initial guess.
 HarFok:  IExCor= 4639 AccDes= 0.00D+00 IRadAn=         4 IDoV= 1 UseB2=F ITyADJ=14
 ICtDFT=  3500011 ScaDFX=  1.000000  1.000000  1.000000  1.000000
 FoFCou: FMM=F IPFlag=           0 FMFlag=      100000 FMFlg1=           0
         NFxFlg=           0 DoJE=T BraDBF=F KetDBF=T FulRan=T
         wScrn=  0.000000 ICntrl=       500 IOpCl=  0 I1Cent=   200000004 NGrid=           0
         NMat0=    1 NMatS0=      1 NMatT0=    0 NMatD0=    1 NMtDS0=    0 NMtDT0=    0
 Symmetry not used in FoFCou.
 Requested convergence on RMS density matrix=1.00D-08 within 128 cycles.
 Requested convergence on MAX density matrix=1.00D-06.
 Requested convergence on             energy=1.00D-06.
 No special actions if energy rises.
 Integral accuracy reduced to 1.0D-05 until final iterations.
 Initial convergence to 1.0D-05 achieved.  Increase integral accuracy.
 SCF Done:  E(UwB97XD) =  -371.473025784     A.U. after   15 cycles
            NFock= 15  Conv=0.86D-08     -V/T= 2.0038
 <Sx>= 0.0000 <Sy>= 0.0000 <Sz>= 0.0000 <S**2>=-0.0000 S=-0.0000
 <L.S>=  0.00000000000    
 Annihilation of the first spin contaminant:
 S**2 before annihilation    -0.0000,   after    -0.0000
 DoSCS=F DFT=T ScalE2(SS,OS)=  1.000000  1.000000
 Range of M.O.s used for correlation:     1   229
 NBasis=   229 NAE=    25 NBE=    25 NFC=     0 NFV=     0
 NROrb=    229 NOA=    25 NOB=    25 NVA=   204 NVB=   204

 **** Warning!!: The largest alpha MO coefficient is  0.19619250D+02


 **** Warning!!: The largest beta MO coefficient is  0.19619250D+02

 Symmetrizing basis deriv contribution to polar:
 IMax=3 JMax=2 DiffMx= 0.00D+00
   1 Symmetry operations used in ECPInt.
 ECPInt:  NShTT=    3655 NPrTT=   11788 LenC2=    3439 LenP2D=    8599.
 LDataN:  DoStor=T MaxTD1= 7 Len=  274
 Calling FoFJK, ICntrl=      2147 FMM=F ISym2X=0 I1Cent= 0 IOpClX= 1 NMat=1 NMatS=1 NMatT=0.
 -------------------------------------------------------------------
 Center     Atomic                   Forces (Hartrees/Bohr)
 Number     Number              X              Y              Z
 -------------------------------------------------------------------
      1        7           0.002534594   -0.000733881    0.000000175
      2        6          -0.008104196    0.002812311   -0.000000222
      3        7          -0.000075271   -0.000150331    0.000000013
      4        7           0.000031544    0.000026045   -0.000000005
      5        8          -0.001153487    0.006416487   -0.000000656
      6        7           0.004334651   -0.013112619    0.000001138
      7        6           0.001549402    0.003752771   -0.000000334
      8        1           0.000785706    0.000480568   -0.000000019
      9        1           0.000097057    0.000508649   -0.000000089
 -------------------------------------------------------------------
 Cartesian Forces:  Max     0.013112619 RMS     0.003503501
 IRC-IRC-IRC-IRC-IRC-IRC-IRC-IRC-IRC-IRC-IRC-IRC-IRC-IRC-IRC-IRC-IRC-IRC
 Pt  2 Step number   1 out of a maximum of  20
 Modified Bulirsch-Stoer Extrapolation Cycles:
    EPS =    0.000010000000000
      PEZero:  N= 2 I= 1 D=  7.94D-04 Err=  1.21D-05
      PEZero:  N= 3 I= 2 D=  7.94D-04 Err=  8.06D-06
      PEZero:  N= 3 I= 1 D=  1.59D-03 Err=  5.43D-08
 Maximum DWI energy   std dev =  0.000000760 at pt    49
 Maximum DWI gradient std dev =  0.025400923 at pt    55
 CORRECTOR INTEGRATION CONVERGENCE:
   Recorrection delta-x convergence threshold:    0.010000
   Delta-x Convergence Met
 Point Number:   2          Path Number:   1
   CHANGE IN THE REACTION COORDINATE =    0.15243
   NET REACTION COORDINATE UP TO THIS POINT =    0.30488
  # OF POINTS ALONG THE PATH =   2
  # OF STEPS =   1

 Calculating another point on the path.
 IRC-IRC-IRC-IRC-IRC-IRC-IRC-IRC-IRC-IRC-IRC-IRC-IRC-IRC-IRC-IRC-IRC-IRC
                          Input orientation:                          
 ---------------------------------------------------------------------
 Center     Atomic      Atomic             Coordinates (Angstroms)
 Number     Number       Type             X           Y           Z
 ---------------------------------------------------------------------
      1          7           0        0.526559    1.782317   -0.000001
      2          6           0        0.265468    0.594276    0.000007
      3          7           0       -2.775719   -0.614702   -0.000001
      4          7           0       -3.687420   -0.021213   -0.000001
      5          8           0        2.990598   -0.374982   -0.000005
      6          7           0        1.817816   -0.616089   -0.000005
      7          6           0        0.579319   -0.776905    0.000006
      8          1           0       -0.252607    2.431859    0.000009
      9          1           0       -0.041336   -1.674126    0.000012
 ---------------------------------------------------------------------
                    Distance matrix (angstroms):
                    1          2          3          4          5
     1  N    0.000000
     2  C    1.216392   0.000000
     3  N    4.080532   3.272682   0.000000
     4  N    4.583704   4.000519   1.087855   0.000000
     5  O    3.274970   2.892368   5.771298   6.687382   0.000000
     6  N    2.723912   1.968443   4.593536   5.537284   1.197309
     7  C    2.559766   1.406641   3.358957   4.333144   2.444546
     8  H    1.014398   1.909217   3.955708   4.220842   4.289141
     9  H    3.502785   2.289056   2.932444   4.003255   3.298545
                    6          7          8          9
     6  N    0.000000
     7  C    1.248894   0.000000
     8  H    3.684649   3.314855   0.000000
     9  H    2.139133   1.090972   4.111416   0.000000
 Symmetry turned off by external request.
 Stoichiometry    C2H2N4O
 Framework group  C1[X(C2H2N4O)]
 Deg. of freedom    21
 Full point group                 C1      NOp   1
 Rotational constants (GHZ):           6.5117885           1.0180123           0.8803793
 Standard basis: def2TZVP (5D, 7F)
   229 basis functions,   373 primitive gaussians,   264 cartesian basis functions
    25 alpha electrons       25 beta electrons
       nuclear repulsion energy       232.6747080373 Hartrees.
 NAtoms=    9 NActive=    9 NUniq=    9 SFac= 1.00D+00 NAtFMM=   60 NAOKFM=F Big=F
 Integral buffers will be    131072 words long.
 Raffenetti 2 integral format.
 Two-electron integral symmetry is turned off.
 Nuclear repulsion after empirical dispersion term =      232.6724024873 Hartrees.
 One-electron integrals computed using PRISM.
   1 Symmetry operations used in ECPInt.
 ECPInt:  NShTT=    3655 NPrTT=   11788 LenC2=    3439 LenP2D=    8596.
 LDataN:  DoStor=T MaxTD1= 6 Len=  172
 NBasis=   229 RedAO= T EigKep=  1.60D-04  NBF=   229
 NBsUse=   229 1.00D-06 EigRej= -1.00D+00 NBFU=   229
 Initial guess from the checkpoint file:  "/scratch/23935644/Gau-18296.chk"
 B after Tr=     0.000222    0.000305   -0.000000
         Rot=    1.000000   -0.000000    0.000000    0.000025 Ang=   0.00 deg.
 Initial guess <Sx>= 0.0000 <Sy>= 0.0000 <Sz>= 0.0000 <S**2>= 0.0000 S= 0.0000
 ExpMin= 9.52D-02 ExpMax= 2.70D+04 ExpMxC= 9.22D+02 IAcc=2 IRadAn=         4 AccDes= 0.00D+00
 Harris functional with IExCor= 4639 and IRadAn=       4 diagonalized for initial guess.
 HarFok:  IExCor= 4639 AccDes= 0.00D+00 IRadAn=         4 IDoV= 1 UseB2=F ITyADJ=14
 ICtDFT=  3500011 ScaDFX=  1.000000  1.000000  1.000000  1.000000
 FoFCou: FMM=F IPFlag=           0 FMFlag=      100000 FMFlg1=           0
         NFxFlg=           0 DoJE=T BraDBF=F KetDBF=T FulRan=T
         wScrn=  0.000000 ICntrl=       500 IOpCl=  0 I1Cent=   200000004 NGrid=           0
         NMat0=    1 NMatS0=      1 NMatT0=    0 NMatD0=    1 NMtDS0=    0 NMtDT0=    0
 Symmetry not used in FoFCou.
 Requested convergence on RMS density matrix=1.00D-08 within 128 cycles.
 Requested convergence on MAX density matrix=1.00D-06.
 Requested convergence on             energy=1.00D-06.
 No special actions if energy rises.
 Integral accuracy reduced to 1.0D-05 until final iterations.
 Initial convergence to 1.0D-05 achieved.  Increase integral accuracy.
 SCF Done:  E(UwB97XD) =  -371.473971900     A.U. after   15 cycles
            NFock= 15  Conv=0.98D-08     -V/T= 2.0038
 <Sx>= 0.0000 <Sy>= 0.0000 <Sz>= 0.0000 <S**2>=-0.0000 S=-0.0000
 <L.S>=  0.00000000000    
 Annihilation of the first spin contaminant:
 S**2 before annihilation    -0.0000,   after    -0.0000
 DoSCS=F DFT=T ScalE2(SS,OS)=  1.000000  1.000000
 Range of M.O.s used for correlation:     1   229
 NBasis=   229 NAE=    25 NBE=    25 NFC=     0 NFV=     0
 NROrb=    229 NOA=    25 NOB=    25 NVA=   204 NVB=   204

 **** Warning!!: The largest alpha MO coefficient is  0.19622423D+02


 **** Warning!!: The largest beta MO coefficient is  0.19622423D+02

 Symmetrizing basis deriv contribution to polar:
 IMax=3 JMax=2 DiffMx= 0.00D+00
   1 Symmetry operations used in ECPInt.
 ECPInt:  NShTT=    3655 NPrTT=   11788 LenC2=    3439 LenP2D=    8596.
 LDataN:  DoStor=T MaxTD1= 7 Len=  274
 Calling FoFJK, ICntrl=      2147 FMM=F ISym2X=0 I1Cent= 0 IOpClX= 1 NMat=1 NMatS=1 NMatT=0.
 -------------------------------------------------------------------
 Center     Atomic                   Forces (Hartrees/Bohr)
 Number     Number              X              Y              Z
 -------------------------------------------------------------------
      1        7           0.003624493   -0.001013913    0.000000113
      2        6          -0.011458363    0.003911506   -0.000000102
      3        7          -0.000099954   -0.000187013    0.000000011
      4        7           0.000041751    0.000031842   -0.000000005
      5        8          -0.001795120    0.009570655   -0.000000506
      6        7           0.006202559   -0.019355593    0.000000851
      7        6           0.002216802    0.005593636   -0.000000249
      8        1           0.001128178    0.000738719   -0.000000014
      9        1           0.000139652    0.000710161   -0.000000100
 -------------------------------------------------------------------
 Cartesian Forces:  Max     0.019355593 RMS     0.005118169
 IRC-IRC-IRC-IRC-IRC-IRC-IRC-IRC-IRC-IRC-IRC-IRC-IRC-IRC-IRC-IRC-IRC-IRC
 Pt  3 Step number   1 out of a maximum of  20
 Modified Bulirsch-Stoer Extrapolation Cycles:
    EPS =    0.000010000000000
      PEZero:  N= 2 I= 1 D=  7.94D-04 Err=  1.81D-05
      PEZero:  N= 3 I= 2 D=  7.94D-04 Err=  1.21D-05
      PEZero:  N= 3 I= 1 D=  1.59D-03 Err=  2.42D-08
 Maximum DWI energy   std dev =  0.000001232 at pt    36
 Maximum DWI gradient std dev =  0.016261964 at pt    28
 CORRECTOR INTEGRATION CONVERGENCE:
   Recorrection delta-x convergence threshold:    0.010000
   Delta-x Convergence Met
 Point Number:   3          Path Number:   1
   CHANGE IN THE REACTION COORDINATE =    0.15244
   NET REACTION COORDINATE UP TO THIS POINT =    0.45733
  # OF POINTS ALONG THE PATH =   3
  # OF STEPS =   1

 Calculating another point on the path.
 IRC-IRC-IRC-IRC-IRC-IRC-IRC-IRC-IRC-IRC-IRC-IRC-IRC-IRC-IRC-IRC-IRC-IRC
                          Input orientation:                          
 ---------------------------------------------------------------------
 Center     Atomic      Atomic             Coordinates (Angstroms)
 Number     Number       Type             X           Y           Z
 ---------------------------------------------------------------------
      1          7           0        0.529446    1.781547   -0.000001
      2          6           0        0.255161    0.597685    0.000007
      3          7           0       -2.775796   -0.614847   -0.000001
      4          7           0       -3.687394   -0.021183   -0.000001
      5          8           0        2.989453   -0.368304   -0.000005
      6          7           0        1.822395   -0.631416   -0.000004
      7          6           0        0.581474   -0.771628    0.000006
      8          1           0       -0.241156    2.440890    0.000009
      9          1           0       -0.040449   -1.667093    0.000011
 ---------------------------------------------------------------------
                    Distance matrix (angstroms):
                    1          2          3          4          5
     1  N    0.000000
     2  C    1.215221   0.000000
     3  N    4.082564   3.264496   0.000000
     4  N    4.586020   3.990832   1.087864   0.000000
     5  O    3.267031   2.899911   5.770518   6.685864   0.000000
     6  N    2.737537   1.991711   4.598221   5.543479   1.196349
     7  C    2.553706   1.407658   3.360928   4.334328   2.441523
     8  H    1.014180   1.908856   3.970129   4.235370   4.281168
     9  H    3.495411   2.283989   2.930758   4.001153   3.296537
                    6          7          8          9
     6  N    0.000000
     7  C    1.248817   0.000000
     8  H    3.700987   3.316171   0.000000
     9  H    2.131388   1.090250   4.112883   0.000000
 Symmetry turned off by external request.
 Stoichiometry    C2H2N4O
 Framework group  C1[X(C2H2N4O)]
 Deg. of freedom    21
 Full point group                 C1      NOp   1
 Rotational constants (GHZ):           6.5014087           1.0177467           0.8799908
 Standard basis: def2TZVP (5D, 7F)
   229 basis functions,   373 primitive gaussians,   264 cartesian basis functions
    25 alpha electrons       25 beta electrons
       nuclear repulsion energy       232.5737430046 Hartrees.
 NAtoms=    9 NActive=    9 NUniq=    9 SFac= 1.00D+00 NAtFMM=   60 NAOKFM=F Big=F
 Integral buffers will be    131072 words long.
 Raffenetti 2 integral format.
 Two-electron integral symmetry is turned off.
 Nuclear repulsion after empirical dispersion term =      232.5714365605 Hartrees.
 One-electron integrals computed using PRISM.
   1 Symmetry operations used in ECPInt.
 ECPInt:  NShTT=    3655 NPrTT=   11788 LenC2=    3440 LenP2D=    8597.
 LDataN:  DoStor=T MaxTD1= 6 Len=  172
 NBasis=   229 RedAO= T EigKep=  1.65D-04  NBF=   229
 NBsUse=   229 1.00D-06 EigRej= -1.00D+00 NBFU=   229
 Initial guess from the checkpoint file:  "/scratch/23935644/Gau-18296.chk"
 B after Tr=     0.000232    0.000306   -0.000000
         Rot=    1.000000   -0.000000    0.000000    0.000025 Ang=   0.00 deg.
 Initial guess <Sx>= 0.0000 <Sy>= 0.0000 <Sz>= 0.0000 <S**2>=-0.0000 S=-0.0000
 ExpMin= 9.52D-02 ExpMax= 2.70D+04 ExpMxC= 9.22D+02 IAcc=2 IRadAn=         4 AccDes= 0.00D+00
 Harris functional with IExCor= 4639 and IRadAn=       4 diagonalized for initial guess.
 HarFok:  IExCor= 4639 AccDes= 0.00D+00 IRadAn=         4 IDoV= 1 UseB2=F ITyADJ=14
 ICtDFT=  3500011 ScaDFX=  1.000000  1.000000  1.000000  1.000000
 FoFCou: FMM=F IPFlag=           0 FMFlag=      100000 FMFlg1=           0
         NFxFlg=           0 DoJE=T BraDBF=F KetDBF=T FulRan=T
         wScrn=  0.000000 ICntrl=       500 IOpCl=  0 I1Cent=   200000004 NGrid=           0
         NMat0=    1 NMatS0=      1 NMatT0=    0 NMatD0=    1 NMtDS0=    0 NMtDT0=    0
 Symmetry not used in FoFCou.
 Requested convergence on RMS density matrix=1.00D-08 within 128 cycles.
 Requested convergence on MAX density matrix=1.00D-06.
 Requested convergence on             energy=1.00D-06.
 No special actions if energy rises.
 Integral accuracy reduced to 1.0D-05 until final iterations.
 Initial convergence to 1.0D-05 achieved.  Increase integral accuracy.
 SCF Done:  E(UwB97XD) =  -371.475255854     A.U. after   15 cycles
            NFock= 15  Conv=0.97D-08     -V/T= 2.0038
 <Sx>= 0.0000 <Sy>= 0.0000 <Sz>= 0.0000 <S**2>=-0.0000 S=-0.0000
 <L.S>=  0.00000000000    
 Annihilation of the first spin contaminant:
 S**2 before annihilation    -0.0000,   after    -0.0000
 DoSCS=F DFT=T ScalE2(SS,OS)=  1.000000  1.000000
 Range of M.O.s used for correlation:     1   229
 NBasis=   229 NAE=    25 NBE=    25 NFC=     0 NFV=     0
 NROrb=    229 NOA=    25 NOB=    25 NVA=   204 NVB=   204

 **** Warning!!: The largest alpha MO coefficient is  0.19625483D+02


 **** Warning!!: The largest beta MO coefficient is  0.19625483D+02

 Symmetrizing basis deriv contribution to polar:
 IMax=3 JMax=2 DiffMx= 0.00D+00
   1 Symmetry operations used in ECPInt.
 ECPInt:  NShTT=    3655 NPrTT=   11788 LenC2=    3440 LenP2D=    8597.
 LDataN:  DoStor=T MaxTD1= 7 Len=  274
 Calling FoFJK, ICntrl=      2147 FMM=F ISym2X=0 I1Cent= 0 IOpClX= 1 NMat=1 NMatS=1 NMatT=0.
 -------------------------------------------------------------------
 Center     Atomic                   Forces (Hartrees/Bohr)
 Number     Number              X              Y              Z
 -------------------------------------------------------------------
      1        7           0.004486964   -0.001316099    0.000000072
      2        6          -0.014153896    0.004912936   -0.000000023
      3        7          -0.000120256   -0.000227795    0.000000009
      4        7           0.000043555    0.000041987   -0.000000004
      5        8          -0.002661937    0.012579320   -0.000000398
      6        7           0.008050238   -0.025179947    0.000000651
      7        6           0.002737069    0.007309854   -0.000000206
      8        1           0.001461102    0.000999710   -0.000000007
      9        1           0.000157160    0.000880033   -0.000000094
 -------------------------------------------------------------------
 Cartesian Forces:  Max     0.025179947 RMS     0.006598049
 IRC-IRC-IRC-IRC-IRC-IRC-IRC-IRC-IRC-IRC-IRC-IRC-IRC-IRC-IRC-IRC-IRC-IRC
 Pt  4 Step number   1 out of a maximum of  20
 Modified Bulirsch-Stoer Extrapolation Cycles:
    EPS =    0.000010000000000
      PEZero:  N= 2 I= 1 D=  7.94D-04 Err=  2.12D-05
      PEZero:  N= 3 I= 2 D=  7.94D-04 Err=  1.41D-05
      PEZero:  N= 3 I= 1 D=  1.59D-03 Err=  2.61D-08
 Maximum DWI energy   std dev =  0.000001681 at pt    36
 Maximum DWI gradient std dev =  0.012126151 at pt    38
 CORRECTOR INTEGRATION CONVERGENCE:
   Recorrection delta-x convergence threshold:    0.010000
   Delta-x Convergence Met
 Point Number:   4          Path Number:   1
   CHANGE IN THE REACTION COORDINATE =    0.15245
   NET REACTION COORDINATE UP TO THIS POINT =    0.60977
  # OF POINTS ALONG THE PATH =   4
  # OF STEPS =   1

 Calculating another point on the path.
 IRC-IRC-IRC-IRC-IRC-IRC-IRC-IRC-IRC-IRC-IRC-IRC-IRC-IRC-IRC-IRC-IRC-IRC
                          Input orientation:                          
 ---------------------------------------------------------------------
 Center     Atomic      Atomic             Coordinates (Angstroms)
 Number     Number       Type             X           Y           Z
 ---------------------------------------------------------------------
      1          7           0        0.532186    1.780742   -0.000001
      2          6           0        0.245315    0.601071    0.000007
      3          7           0       -2.775868   -0.614985   -0.000001
      4          7           0       -3.687371   -0.021158   -0.000001
      5          8           0        2.988052   -0.361501   -0.000005
      6          7           0        1.827110   -0.646880   -0.000004
      7          6           0        0.583480   -0.766324    0.000006
      8          1           0       -0.229345    2.450186    0.000009
      9          1           0       -0.039481   -1.660038    0.000010
 ---------------------------------------------------------------------
                    Distance matrix (angstroms):
                    1          2          3          4          5
     1  N    0.000000
     2  C    1.214051   0.000000
     3  N    4.084450   3.256738   0.000000
     4  N    4.588192   3.981606   1.087873   0.000000
     5  O    3.258908   2.906742   5.769491   6.684093   0.000000
     6  N    2.751396   2.014809   4.603088   5.549867   1.195503
     7  C    2.547582   1.408589   3.362755   4.335370   2.438411
     8  H    1.013946   1.909066   3.984979   4.250351   4.272848
     9  H    3.487947   2.278974   2.929155   3.999128   3.294261
                    6          7          8          9
     6  N    0.000000
     7  C    1.249353   0.000000
     8  H    3.717638   3.317623   0.000000
     9  H    2.123829   1.089407   4.114608   0.000000
 Symmetry turned off by external request.
 Stoichiometry    C2H2N4O
 Framework group  C1[X(C2H2N4O)]
 Deg. of freedom    21
 Full point group                 C1      NOp   1
 Rotational constants (GHZ):           6.4903329           1.0175130           0.8796129
 Standard basis: def2TZVP (5D, 7F)
   229 basis functions,   373 primitive gaussians,   264 cartesian basis functions
    25 alpha electrons       25 beta electrons
       nuclear repulsion energy       232.4690368873 Hartrees.
 NAtoms=    9 NActive=    9 NUniq=    9 SFac= 1.00D+00 NAtFMM=   60 NAOKFM=F Big=F
 Integral buffers will be    131072 words long.
 Raffenetti 2 integral format.
 Two-electron integral symmetry is turned off.
 Nuclear repulsion after empirical dispersion term =      232.4667295012 Hartrees.
 One-electron integrals computed using PRISM.
   1 Symmetry operations used in ECPInt.
 ECPInt:  NShTT=    3655 NPrTT=   11788 LenC2=    3439 LenP2D=    8592.
 LDataN:  DoStor=T MaxTD1= 6 Len=  172
 NBasis=   229 RedAO= T EigKep=  1.71D-04  NBF=   229
 NBsUse=   229 1.00D-06 EigRej= -1.00D+00 NBFU=   229
 Initial guess from the checkpoint file:  "/scratch/23935644/Gau-18296.chk"
 B after Tr=     0.000240    0.000311   -0.000000
         Rot=    1.000000   -0.000000   -0.000000    0.000025 Ang=   0.00 deg.
 Initial guess <Sx>= 0.0000 <Sy>= 0.0000 <Sz>= 0.0000 <S**2>=-0.0000 S=-0.0000
 ExpMin= 9.52D-02 ExpMax= 2.70D+04 ExpMxC= 9.22D+02 IAcc=2 IRadAn=         4 AccDes= 0.00D+00
 Harris functional with IExCor= 4639 and IRadAn=       4 diagonalized for initial guess.
 HarFok:  IExCor= 4639 AccDes= 0.00D+00 IRadAn=         4 IDoV= 1 UseB2=F ITyADJ=14
 ICtDFT=  3500011 ScaDFX=  1.000000  1.000000  1.000000  1.000000
 FoFCou: FMM=F IPFlag=           0 FMFlag=      100000 FMFlg1=           0
         NFxFlg=           0 DoJE=T BraDBF=F KetDBF=T FulRan=T
         wScrn=  0.000000 ICntrl=       500 IOpCl=  0 I1Cent=   200000004 NGrid=           0
         NMat0=    1 NMatS0=      1 NMatT0=    0 NMatD0=    1 NMtDS0=    0 NMtDT0=    0
 Symmetry not used in FoFCou.
 Requested convergence on RMS density matrix=1.00D-08 within 128 cycles.
 Requested convergence on MAX density matrix=1.00D-06.
 Requested convergence on             energy=1.00D-06.
 No special actions if energy rises.
 Integral accuracy reduced to 1.0D-05 until final iterations.
 Initial convergence to 1.0D-05 achieved.  Increase integral accuracy.
 SCF Done:  E(UwB97XD) =  -371.476844713     A.U. after   15 cycles
            NFock= 15  Conv=0.78D-08     -V/T= 2.0038
 <Sx>= 0.0000 <Sy>= 0.0000 <Sz>= 0.0000 <S**2>=-0.0000 S=-0.0000
 <L.S>=  0.00000000000    
 Annihilation of the first spin contaminant:
 S**2 before annihilation    -0.0000,   after    -0.0000
 DoSCS=F DFT=T ScalE2(SS,OS)=  1.000000  1.000000
 Range of M.O.s used for correlation:     1   229
 NBasis=   229 NAE=    25 NBE=    25 NFC=     0 NFV=     0
 NROrb=    229 NOA=    25 NOB=    25 NVA=   204 NVB=   204

 **** Warning!!: The largest alpha MO coefficient is  0.19628416D+02


 **** Warning!!: The largest beta MO coefficient is  0.19628416D+02

 Symmetrizing basis deriv contribution to polar:
 IMax=3 JMax=2 DiffMx= 0.00D+00
   1 Symmetry operations used in ECPInt.
 ECPInt:  NShTT=    3655 NPrTT=   11788 LenC2=    3439 LenP2D=    8592.
 LDataN:  DoStor=T MaxTD1= 7 Len=  274
 Calling FoFJK, ICntrl=      2147 FMM=F ISym2X=0 I1Cent= 0 IOpClX= 1 NMat=1 NMatS=1 NMatT=0.
 -------------------------------------------------------------------
 Center     Atomic                   Forces (Hartrees/Bohr)
 Number     Number              X              Y              Z
 -------------------------------------------------------------------
      1        7           0.005105794   -0.001593588    0.000000035
      2        6          -0.016158994    0.005762053    0.000000039
      3        7          -0.000135562   -0.000261770    0.000000008
      4        7           0.000046543    0.000049968   -0.000000003
      5        8          -0.003702867    0.015388164   -0.000000315
      6        7           0.009800944   -0.030488015    0.000000501
      7        6           0.003075495    0.008865829   -0.000000174
      8        1           0.001792317    0.001245922    0.000000000
      9        1           0.000176328    0.001031438   -0.000000091
 -------------------------------------------------------------------
 Cartesian Forces:  Max     0.030488015 RMS     0.007918614
 IRC-IRC-IRC-IRC-IRC-IRC-IRC-IRC-IRC-IRC-IRC-IRC-IRC-IRC-IRC-IRC-IRC-IRC
 Pt  5 Step number   1 out of a maximum of  20
 Modified Bulirsch-Stoer Extrapolation Cycles:
    EPS =    0.000010000000000
      PEZero:  N= 2 I= 1 D=  7.94D-04 Err=  2.37D-05
      PEZero:  N= 3 I= 2 D=  7.94D-04 Err=  1.58D-05
      PEZero:  N= 3 I= 1 D=  1.59D-03 Err=  2.79D-08
 Maximum DWI energy   std dev =  0.000002038 at pt    71
 Maximum DWI gradient std dev =  0.009930880 at pt    38
 CORRECTOR INTEGRATION CONVERGENCE:
   Recorrection delta-x convergence threshold:    0.010000
   Delta-x Convergence Met
 Point Number:   5          Path Number:   1
   CHANGE IN THE REACTION COORDINATE =    0.15245
   NET REACTION COORDINATE UP TO THIS POINT =    0.76222
  # OF POINTS ALONG THE PATH =   5
  # OF STEPS =   1

 Calculating another point on the path.
 IRC-IRC-IRC-IRC-IRC-IRC-IRC-IRC-IRC-IRC-IRC-IRC-IRC-IRC-IRC-IRC-IRC-IRC
                          Input orientation:                          
 ---------------------------------------------------------------------
 Center     Atomic      Atomic             Coordinates (Angstroms)
 Number     Number       Type             X           Y           Z
 ---------------------------------------------------------------------
      1          7           0        0.534767    1.779912   -0.000001
      2          6           0        0.235978    0.604410    0.000007
      3          7           0       -2.775935   -0.615116   -0.000001
      4          7           0       -3.687348   -0.021134   -0.000001
      5          8           0        2.986383   -0.354567   -0.000005
      6          7           0        1.831957   -0.662483   -0.000004
      7          6           0        0.585321   -0.760989    0.000006
      8          1           0       -0.217128    2.459775    0.000009
      9          1           0       -0.038463   -1.652977    0.000009
 ---------------------------------------------------------------------
                    Distance matrix (angstroms):
                    1          2          3          4          5
     1  N    0.000000
     2  C    1.212881   0.000000
     3  N    4.086185   3.249441   0.000000
     4  N    4.590209   3.972882   1.087882   0.000000
     5  O    3.250604   2.912793   5.768206   6.682055   0.000000
     6  N    2.765501   2.037686   4.608136   5.556443   1.194785
     7  C    2.541403   1.409380   3.364420   4.336252   2.435216
     8  H    1.013686   1.909891   4.000307   4.265833   4.264153
     9  H    3.480419   2.274008   2.927612   3.997158   3.291741
                    6          7          8          9
     6  N    0.000000
     7  C    1.250522   0.000000
     8  H    3.734601   3.319223   0.000000
     9  H    2.116495   1.088462   4.116631   0.000000
 Symmetry turned off by external request.
 Stoichiometry    C2H2N4O
 Framework group  C1[X(C2H2N4O)]
 Deg. of freedom    21
 Full point group                 C1      NOp   1
 Rotational constants (GHZ):           6.4785202           1.0173152           0.8792478
 Standard basis: def2TZVP (5D, 7F)
   229 basis functions,   373 primitive gaussians,   264 cartesian basis functions
    25 alpha electrons       25 beta electrons
       nuclear repulsion energy       232.3605613812 Hartrees.
 NAtoms=    9 NActive=    9 NUniq=    9 SFac= 1.00D+00 NAtFMM=   60 NAOKFM=F Big=F
 Integral buffers will be    131072 words long.
 Raffenetti 2 integral format.
 Two-electron integral symmetry is turned off.
 Nuclear repulsion after empirical dispersion term =      232.3582530079 Hartrees.
 One-electron integrals computed using PRISM.
   1 Symmetry operations used in ECPInt.
 ECPInt:  NShTT=    3655 NPrTT=   11788 LenC2=    3441 LenP2D=    8589.
 LDataN:  DoStor=T MaxTD1= 6 Len=  172
 NBasis=   229 RedAO= T EigKep=  1.76D-04  NBF=   229
 NBsUse=   229 1.00D-06 EigRej= -1.00D+00 NBFU=   229
 Initial guess from the checkpoint file:  "/scratch/23935644/Gau-18296.chk"
 B after Tr=     0.000249    0.000317   -0.000000
         Rot=    1.000000   -0.000000   -0.000000    0.000026 Ang=   0.00 deg.
 Initial guess <Sx>= 0.0000 <Sy>= 0.0000 <Sz>= 0.0000 <S**2>=-0.0000 S=-0.0000
 ExpMin= 9.52D-02 ExpMax= 2.70D+04 ExpMxC= 9.22D+02 IAcc=2 IRadAn=         4 AccDes= 0.00D+00
 Harris functional with IExCor= 4639 and IRadAn=       4 diagonalized for initial guess.
 HarFok:  IExCor= 4639 AccDes= 0.00D+00 IRadAn=         4 IDoV= 1 UseB2=F ITyADJ=14
 ICtDFT=  3500011 ScaDFX=  1.000000  1.000000  1.000000  1.000000
 FoFCou: FMM=F IPFlag=           0 FMFlag=      100000 FMFlg1=           0
         NFxFlg=           0 DoJE=T BraDBF=F KetDBF=T FulRan=T
         wScrn=  0.000000 ICntrl=       500 IOpCl=  0 I1Cent=   200000004 NGrid=           0
         NMat0=    1 NMatS0=      1 NMatT0=    0 NMatD0=    1 NMtDS0=    0 NMtDT0=    0
 Symmetry not used in FoFCou.
 Requested convergence on RMS density matrix=1.00D-08 within 128 cycles.
 Requested convergence on MAX density matrix=1.00D-06.
 Requested convergence on             energy=1.00D-06.
 No special actions if energy rises.
 Integral accuracy reduced to 1.0D-05 until final iterations.
 Initial convergence to 1.0D-05 achieved.  Increase integral accuracy.
 SCF Done:  E(UwB97XD) =  -371.478701466     A.U. after   14 cycles
            NFock= 14  Conv=0.62D-08     -V/T= 2.0038
 <Sx>= 0.0000 <Sy>= 0.0000 <Sz>= 0.0000 <S**2>=-0.0000 S=-0.0000
 <L.S>=  0.00000000000    
 Annihilation of the first spin contaminant:
 S**2 before annihilation    -0.0000,   after    -0.0000
 DoSCS=F DFT=T ScalE2(SS,OS)=  1.000000  1.000000
 Range of M.O.s used for correlation:     1   229
 NBasis=   229 NAE=    25 NBE=    25 NFC=     0 NFV=     0
 NROrb=    229 NOA=    25 NOB=    25 NVA=   204 NVB=   204

 **** Warning!!: The largest alpha MO coefficient is  0.19631218D+02


 **** Warning!!: The largest beta MO coefficient is  0.19631218D+02

 Symmetrizing basis deriv contribution to polar:
 IMax=3 JMax=2 DiffMx= 0.00D+00
   1 Symmetry operations used in ECPInt.
 ECPInt:  NShTT=    3655 NPrTT=   11788 LenC2=    3441 LenP2D=    8589.
 LDataN:  DoStor=T MaxTD1= 7 Len=  274
 Calling FoFJK, ICntrl=      2147 FMM=F ISym2X=0 I1Cent= 0 IOpClX= 1 NMat=1 NMatS=1 NMatT=0.
 -------------------------------------------------------------------
 Center     Atomic                   Forces (Hartrees/Bohr)
 Number     Number              X              Y              Z
 -------------------------------------------------------------------
      1        7           0.005476665   -0.001842685    0.000000004
      2        6          -0.017453497    0.006433957    0.000000086
      3        7          -0.000154099   -0.000288968    0.000000008
      4        7           0.000052401    0.000054549   -0.000000003
      5        8          -0.004893434    0.017948840   -0.000000243
      6        7           0.011432987   -0.035189062    0.000000375
      7        6           0.003223942    0.010235908   -0.000000147
      8        1           0.002114225    0.001481466    0.000000007
      9        1           0.000200810    0.001165996   -0.000000088
 -------------------------------------------------------------------
 Cartesian Forces:  Max     0.035189062 RMS     0.009063244
 IRC-IRC-IRC-IRC-IRC-IRC-IRC-IRC-IRC-IRC-IRC-IRC-IRC-IRC-IRC-IRC-IRC-IRC
 Pt  6 Step number   1 out of a maximum of  20
 Modified Bulirsch-Stoer Extrapolation Cycles:
    EPS =    0.000010000000000
      PEZero:  N= 2 I= 1 D=  7.94D-04 Err=  2.61D-05
      PEZero:  N= 3 I= 2 D=  7.94D-04 Err=  1.74D-05
      PEZero:  N= 3 I= 1 D=  1.59D-03 Err=  3.06D-08
 Maximum DWI energy   std dev =  0.000002305 at pt    71
 Maximum DWI gradient std dev =  0.008761705 at pt    38
 CORRECTOR INTEGRATION CONVERGENCE:
   Recorrection delta-x convergence threshold:    0.010000
   Delta-x Convergence Met
 Point Number:   6          Path Number:   1
   CHANGE IN THE REACTION COORDINATE =    0.15245
   NET REACTION COORDINATE UP TO THIS POINT =    0.91467
  # OF POINTS ALONG THE PATH =   6
  # OF STEPS =   1

 Calculating another point on the path.
 IRC-IRC-IRC-IRC-IRC-IRC-IRC-IRC-IRC-IRC-IRC-IRC-IRC-IRC-IRC-IRC-IRC-IRC
                          Input orientation:                          
 ---------------------------------------------------------------------
 Center     Atomic      Atomic             Coordinates (Angstroms)
 Number     Number       Type             X           Y           Z
 ---------------------------------------------------------------------
      1          7           0        0.537172    1.779063   -0.000001
      2          6           0        0.227201    0.607681    0.000007
      3          7           0       -2.776003   -0.615245   -0.000001
      4          7           0       -3.687326   -0.021110   -0.000001
      5          8           0        2.984433   -0.347500   -0.000005
      6          7           0        1.836939   -0.678218   -0.000003
      7          6           0        0.586984   -0.755619    0.000006
      8          1           0       -0.204434    2.469717    0.000009
      9          1           0       -0.037383   -1.645917    0.000009
 ---------------------------------------------------------------------
                    Distance matrix (angstroms):
                    1          2          3          4          5
     1  N    0.000000
     2  C    1.211701   0.000000
     3  N    4.087767   3.242650   0.000000
     4  N    4.592059   3.964706   1.087890   0.000000
     5  O    3.242122   2.917995   5.766655   6.679737   0.000000
     6  N    2.779860   2.060289   4.613372   5.563209   1.194201
     7  C    2.535172   1.409976   3.365916   4.336961   2.431938
     8  H    1.013401   1.911410   4.016212   4.281910   4.255065
     9  H    3.472838   2.269077   2.926145   3.995257   3.288960
                    6          7          8          9
     6  N    0.000000
     7  C    1.252349   0.000000
     8  H    3.751892   3.321014   0.000000
     9  H    2.109389   1.087412   4.119023   0.000000
 Symmetry turned off by external request.
 Stoichiometry    C2H2N4O
 Framework group  C1[X(C2H2N4O)]
 Deg. of freedom    21
 Full point group                 C1      NOp   1
 Rotational constants (GHZ):           6.4659393           1.0171558           0.8788967
 Standard basis: def2TZVP (5D, 7F)
   229 basis functions,   373 primitive gaussians,   264 cartesian basis functions
    25 alpha electrons       25 beta electrons
       nuclear repulsion energy       232.2486877092 Hartrees.
 NAtoms=    9 NActive=    9 NUniq=    9 SFac= 1.00D+00 NAtFMM=   60 NAOKFM=F Big=F
 Integral buffers will be    131072 words long.
 Raffenetti 2 integral format.
 Two-electron integral symmetry is turned off.
 Nuclear repulsion after empirical dispersion term =      232.2463783269 Hartrees.
 One-electron integrals computed using PRISM.
   1 Symmetry operations used in ECPInt.
 ECPInt:  NShTT=    3655 NPrTT=   11788 LenC2=    3440 LenP2D=    8589.
 LDataN:  DoStor=T MaxTD1= 6 Len=  172
 NBasis=   229 RedAO= T EigKep=  1.81D-04  NBF=   229
 NBsUse=   229 1.00D-06 EigRej= -1.00D+00 NBFU=   229
 Initial guess from the checkpoint file:  "/scratch/23935644/Gau-18296.chk"
 B after Tr=     0.000259    0.000323   -0.000000
         Rot=    1.000000   -0.000000   -0.000000    0.000027 Ang=   0.00 deg.
 Initial guess <Sx>= 0.0000 <Sy>= 0.0000 <Sz>= 0.0000 <S**2>=-0.0000 S=-0.0000
 ExpMin= 9.52D-02 ExpMax= 2.70D+04 ExpMxC= 9.22D+02 IAcc=2 IRadAn=         4 AccDes= 0.00D+00
 Harris functional with IExCor= 4639 and IRadAn=       4 diagonalized for initial guess.
 HarFok:  IExCor= 4639 AccDes= 0.00D+00 IRadAn=         4 IDoV= 1 UseB2=F ITyADJ=14
 ICtDFT=  3500011 ScaDFX=  1.000000  1.000000  1.000000  1.000000
 FoFCou: FMM=F IPFlag=           0 FMFlag=      100000 FMFlg1=           0
         NFxFlg=           0 DoJE=T BraDBF=F KetDBF=T FulRan=T
         wScrn=  0.000000 ICntrl=       500 IOpCl=  0 I1Cent=   200000004 NGrid=           0
         NMat0=    1 NMatS0=      1 NMatT0=    0 NMatD0=    1 NMtDS0=    0 NMtDT0=    0
 Symmetry not used in FoFCou.
 Requested convergence on RMS density matrix=1.00D-08 within 128 cycles.
 Requested convergence on MAX density matrix=1.00D-06.
 Requested convergence on             energy=1.00D-06.
 No special actions if energy rises.
 Integral accuracy reduced to 1.0D-05 until final iterations.
 Initial convergence to 1.0D-05 achieved.  Increase integral accuracy.
 SCF Done:  E(UwB97XD) =  -371.480786532     A.U. after   15 cycles
            NFock= 15  Conv=0.61D-08     -V/T= 2.0037
[...]
 Framework group  C1[X(C2H2N4O)]
 Deg. of freedom    21
 Full point group                 C1      NOp   1
 Rotational constants (GHZ):           5.8540635           1.0322970           0.8775509
 Standard basis: def2TZVP (5D, 7F)
   229 basis functions,   373 primitive gaussians,   264 cartesian basis functions
    25 alpha electrons       25 beta electrons
       nuclear repulsion energy       230.8100552456 Hartrees.
 NAtoms=    9 NActive=    9 NUniq=    9 SFac= 1.00D+00 NAtFMM=   60 NAOKFM=F Big=F
 Integral buffers will be    131072 words long.
 Raffenetti 2 integral format.
 Two-electron integral symmetry is turned off.
 Nuclear repulsion after empirical dispersion term =      230.8077688787 Hartrees.
 One-electron integrals computed using PRISM.
   1 Symmetry operations used in ECPInt.
 ECPInt:  NShTT=    3655 NPrTT=   11788 LenC2=    3432 LenP2D=    8574.
 LDataN:  DoStor=T MaxTD1= 6 Len=  172
 NBasis=   229 RedAO= T EigKep=  8.92D-05  NBF=   229
 NBsUse=   229 1.00D-06 EigRej= -1.00D+00 NBFU=   229
 Initial guess from the checkpoint file:  "/scratch/23935644/Gau-18296.chk"
 B after Tr=    -0.000099   -0.000070    0.000001
         Rot=    1.000000   -0.000001    0.000000    0.000012 Ang=  -0.00 deg.
 Initial guess <Sx>= 0.0000 <Sy>= 0.0000 <Sz>= 0.0000 <S**2>= 0.0000 S= 0.0000
 ExpMin= 9.52D-02 ExpMax= 2.70D+04 ExpMxC= 9.22D+02 IAcc=2 IRadAn=         4 AccDes= 0.00D+00
 Harris functional with IExCor= 4639 and IRadAn=       4 diagonalized for initial guess.
 HarFok:  IExCor= 4639 AccDes= 0.00D+00 IRadAn=         4 IDoV= 1 UseB2=F ITyADJ=14
 ICtDFT=  3500011 ScaDFX=  1.000000  1.000000  1.000000  1.000000
 FoFCou: FMM=F IPFlag=           0 FMFlag=      100000 FMFlg1=           0
         NFxFlg=           0 DoJE=T BraDBF=F KetDBF=T FulRan=T
         wScrn=  0.000000 ICntrl=       500 IOpCl=  0 I1Cent=   200000004 NGrid=           0
         NMat0=    1 NMatS0=      1 NMatT0=    0 NMatD0=    1 NMtDS0=    0 NMtDT0=    0
 Symmetry not used in FoFCou.
 Requested convergence on RMS density matrix=1.00D-08 within 128 cycles.
 Requested convergence on MAX density matrix=1.00D-06.
 Requested convergence on             energy=1.00D-06.
 No special actions if energy rises.
 Integral accuracy reduced to 1.0D-05 until final iterations.
 Initial convergence to 1.0D-05 achieved.  Increase integral accuracy.
 SCF Done:  E(UwB97XD) =  -371.535492271     A.U. after   12 cycles
            NFock= 12  Conv=0.67D-08     -V/T= 2.0039
 <Sx>= 0.0000 <Sy>= 0.0000 <Sz>= 0.0000 <S**2>=-0.0000 S=-0.0000
 <L.S>=  0.00000000000    
 Annihilation of the first spin contaminant:
 S**2 before annihilation    -0.0000,   after    -0.0000
 DoSCS=F DFT=T ScalE2(SS,OS)=  1.000000  1.000000
 Range of M.O.s used for correlation:     1   229
 NBasis=   229 NAE=    25 NBE=    25 NFC=     0 NFV=     0
 NROrb=    229 NOA=    25 NOB=    25 NVA=   204 NVB=   204

 **** Warning!!: The largest alpha MO coefficient is  0.23887666D+02


 **** Warning!!: The largest beta MO coefficient is  0.23887666D+02

 Symmetrizing basis deriv contribution to polar:
 IMax=3 JMax=2 DiffMx= 0.00D+00
   1 Symmetry operations used in ECPInt.
 ECPInt:  NShTT=    3655 NPrTT=   11788 LenC2=    3432 LenP2D=    8574.
 LDataN:  DoStor=T MaxTD1= 7 Len=  274
 Calling FoFJK, ICntrl=      2147 FMM=F ISym2X=0 I1Cent= 0 IOpClX= 1 NMat=1 NMatS=1 NMatT=0.
 -------------------------------------------------------------------
 Center     Atomic                   Forces (Hartrees/Bohr)
 Number     Number              X              Y              Z
 -------------------------------------------------------------------
      1        7          -0.007331875    0.006238379   -0.000010203
      2        6           0.009479788   -0.000352061    0.000004791
      3        7          -0.000507710   -0.000006463   -0.000000008
      4        7          -0.000406905    0.000153522   -0.000000004
      5        8          -0.004978246    0.002917405    0.000000885
      6        7          -0.000046646   -0.006323664   -0.000000378
      7        6           0.002411638   -0.000305942    0.000000209
      8        1           0.001493858   -0.002556685    0.000005020
      9        1          -0.000113901    0.000235509   -0.000000311
 -------------------------------------------------------------------
 Cartesian Forces:  Max     0.009479788 RMS     0.003168962
 IRC-IRC-IRC-IRC-IRC-IRC-IRC-IRC-IRC-IRC-IRC-IRC-IRC-IRC-IRC-IRC-IRC-IRC
 Error in corrector energy =          -0.0000552795
 Magnitude of corrector gradient =     0.0170336476
 Magnitude of analytic gradient =      0.0164664071
 Magnitude of difference =             0.0093072323
 Angle between gradients (degrees)=   32.2043
 Pt 33 Step number  18 out of a maximum of  20
 Modified Bulirsch-Stoer Extrapolation Cycles:
    EPS =    0.000010000000000
      PEZero:  N= 2 I= 1 D=  7.93D-04 Err=  3.22D-05
      PEZero:  N= 3 I= 2 D=  7.93D-04 Err=  2.14D-05
      PEZero:  N= 3 I= 1 D=  1.59D-03 Err=  2.90D-07
 Maximum DWI energy   std dev =  0.000012944 at pt    64
 Maximum DWI gradient std dev =  0.110541232 at pt    30
 CORRECTOR INTEGRATION CONVERGENCE:
   Recorrection delta-x convergence threshold:    0.010000
   Delta-x Convergence NOT Met
 IRC-IRC-IRC-IRC-IRC-IRC-IRC-IRC-IRC-IRC-IRC-IRC-IRC-IRC-IRC-IRC-IRC-IRC
                          Input orientation:                          
 ---------------------------------------------------------------------
 Center     Atomic      Atomic             Coordinates (Angstroms)
 Number     Number       Type             X           Y           Z
 ---------------------------------------------------------------------
      1          7           0        0.466447    1.800483   -0.000026
      2          6           0        0.327984    0.641562    0.000019
      3          7           0       -2.781867   -0.617418   -0.000001
      4          7           0       -3.690507   -0.019573   -0.000001
      5          8           0        2.825904   -0.174479   -0.000002
      6          7           0        1.961711   -1.027927   -0.000006
      7          6           0        0.606633   -0.673510    0.000008
      8          1           0        0.382573    2.785790    0.000204
      9          1           0       -0.114074   -1.468719   -0.000013
 ---------------------------------------------------------------------
                    Distance matrix (angstroms):
                    1          2          3          4          5
     1  N    0.000000
     2  C    1.167164   0.000000
     3  N    4.049419   3.355027   0.000000
     4  N    4.537937   4.072513   1.087679   0.000000
     5  O    3.076933   2.627838   5.625238   6.518252   0.000000
     6  N    3.199331   2.335863   4.761308   5.741459   1.214579
     7  C    2.477962   1.344269   3.388965   4.346614   2.274686
     8  H    0.988870   2.144923   4.647097   4.945709   3.838367
     9  H    3.320344   2.156084   2.800327   3.858872   3.212247
                    6          7          8          9
     6  N    0.000000
     7  C    1.400660   0.000000
     8  H    4.127725   3.466549   0.000000
     9  H    2.122071   1.073209   4.283399   0.000000
 Symmetry turned off by external request.
 Stoichiometry    C2H2N4O
 Framework group  C1[X(C2H2N4O)]
 Deg. of freedom    21
 Full point group                 C1      NOp   1
 Rotational constants (GHZ):           5.8494130           1.0321852           0.8773656
 Standard basis: def2TZVP (5D, 7F)
   229 basis functions,   373 primitive gaussians,   264 cartesian basis functions
    25 alpha electrons       25 beta electrons
       nuclear repulsion energy       230.7241328685 Hartrees.
 NAtoms=    9 NActive=    9 NUniq=    9 SFac= 1.00D+00 NAtFMM=   60 NAOKFM=F Big=F
 Integral buffers will be    131072 words long.
 Raffenetti 2 integral format.
 Two-electron integral symmetry is turned off.
 Nuclear repulsion after empirical dispersion term =      230.7218463468 Hartrees.
 One-electron integrals computed using PRISM.
   1 Symmetry operations used in ECPInt.
 ECPInt:  NShTT=    3655 NPrTT=   11788 LenC2=    3432 LenP2D=    8574.
 LDataN:  DoStor=T MaxTD1= 6 Len=  172
 NBasis=   229 RedAO= T EigKep=  8.88D-05  NBF=   229
 NBsUse=   229 1.00D-06 EigRej= -1.00D+00 NBFU=   229
 Initial guess from the checkpoint file:  "/scratch/23935644/Gau-18296.chk"
 B after Tr=     0.000099    0.000070   -0.000001
         Rot=    1.000000    0.000001   -0.000000   -0.000012 Ang=   0.00 deg.
 Initial guess <Sx>= 0.0000 <Sy>= 0.0000 <Sz>= 0.0000 <S**2>=-0.0000 S=-0.0000
 ExpMin= 9.52D-02 ExpMax= 2.70D+04 ExpMxC= 9.22D+02 IAcc=2 IRadAn=         4 AccDes= 0.00D+00
 Harris functional with IExCor= 4639 and IRadAn=       4 diagonalized for initial guess.
 HarFok:  IExCor= 4639 AccDes= 0.00D+00 IRadAn=         4 IDoV= 1 UseB2=F ITyADJ=14
 ICtDFT=  3500011 ScaDFX=  1.000000  1.000000  1.000000  1.000000
 FoFCou: FMM=F IPFlag=           0 FMFlag=      100000 FMFlg1=           0
         NFxFlg=           0 DoJE=T BraDBF=F KetDBF=T FulRan=T
         wScrn=  0.000000 ICntrl=       500 IOpCl=  0 I1Cent=   200000004 NGrid=           0
         NMat0=    1 NMatS0=      1 NMatT0=    0 NMatD0=    1 NMtDS0=    0 NMtDT0=    0
 Symmetry not used in FoFCou.
 Requested convergence on RMS density matrix=1.00D-08 within 128 cycles.
 Requested convergence on MAX density matrix=1.00D-06.
 Requested convergence on             energy=1.00D-06.
 No special actions if energy rises.
 Integral accuracy reduced to 1.0D-05 until final iterations.
 Initial convergence to 1.0D-05 achieved.  Increase integral accuracy.
 SCF Done:  E(UwB97XD) =  -371.535474640     A.U. after   12 cycles
            NFock= 12  Conv=0.70D-08     -V/T= 2.0039
 <Sx>= 0.0000 <Sy>= 0.0000 <Sz>= 0.0000 <S**2>=-0.0000 S=-0.0000
 <L.S>=  0.00000000000    
 Annihilation of the first spin contaminant:
 S**2 before annihilation    -0.0000,   after    -0.0000
 DoSCS=F DFT=T ScalE2(SS,OS)=  1.000000  1.000000
 Range of M.O.s used for correlation:     1   229
 NBasis=   229 NAE=    25 NBE=    25 NFC=     0 NFV=     0
 NROrb=    229 NOA=    25 NOB=    25 NVA=   204 NVB=   204

 **** Warning!!: The largest alpha MO coefficient is  0.23839170D+02


 **** Warning!!: The largest beta MO coefficient is  0.23839170D+02

 Symmetrizing basis deriv contribution to polar:
 IMax=3 JMax=2 DiffMx= 0.00D+00
   1 Symmetry operations used in ECPInt.
 ECPInt:  NShTT=    3655 NPrTT=   11788 LenC2=    3432 LenP2D=    8574.
 LDataN:  DoStor=T MaxTD1= 7 Len=  274
 Calling FoFJK, ICntrl=      2147 FMM=F ISym2X=0 I1Cent= 0 IOpClX= 1 NMat=1 NMatS=1 NMatT=0.
 -------------------------------------------------------------------
 Center     Atomic                   Forces (Hartrees/Bohr)
 Number     Number              X              Y              Z
 -------------------------------------------------------------------
      1        7          -0.007400639   -0.002790099   -0.000010827
      2        6           0.009891921    0.002966060    0.000004035
      3        7          -0.000516458   -0.000000753   -0.000000008
      4        7          -0.000404663    0.000149988   -0.000000004
      5        8          -0.008128728   -0.000891246    0.000000842
      6        7           0.002124655   -0.001615140   -0.000000338
      7        6           0.003669352   -0.002039617    0.000000300
      8        1           0.001084890    0.003854980    0.000006257
      9        1          -0.000320330    0.000365827   -0.000000256
 -------------------------------------------------------------------
 Cartesian Forces:  Max     0.009891921 RMS     0.003206167
 IRC-IRC-IRC-IRC-IRC-IRC-IRC-IRC-IRC-IRC-IRC-IRC-IRC-IRC-IRC-IRC-IRC-IRC
 Error in corrector energy =          -0.0000535417
 Magnitude of corrector gradient =     0.0153394970
 Magnitude of analytic gradient =      0.0166597333
 Magnitude of difference =             0.0108047702
 Angle between gradients (degrees)=   39.1953
 Pt 33 Step number  19 out of a maximum of  20
 Modified Bulirsch-Stoer Extrapolation Cycles:
    EPS =    0.000010000000000
      PEZero:  N= 2 I= 1 D=  7.93D-04 Err=  3.07D-04
      PEZero:  N= 3 I= 2 D=  7.93D-04 Err=  2.05D-04
      PEZero:  N= 3 I= 1 D=  1.59D-03 Err=  6.08D-07
 Maximum DWI energy   std dev =  0.000019979 at pt    24
 Maximum DWI gradient std dev =  0.344619013 at pt    58
 CORRECTOR INTEGRATION CONVERGENCE:
   Recorrection delta-x convergence threshold:    0.010000
   Delta-x Convergence NOT Met
 IRC-IRC-IRC-IRC-IRC-IRC-IRC-IRC-IRC-IRC-IRC-IRC-IRC-IRC-IRC-IRC-IRC-IRC
                          Input orientation:                          
 ---------------------------------------------------------------------
 Center     Atomic      Atomic             Coordinates (Angstroms)
 Number     Number       Type             X           Y           Z
 ---------------------------------------------------------------------
      1          7           0        0.465303    1.799440   -0.000026
      2          6           0        0.327709    0.641745    0.000019
      3          7           0       -2.781839   -0.617411   -0.000001
      4          7           0       -3.690486   -0.019577   -0.000001
      5          8           0        2.825459   -0.176312   -0.000002
      6          7           0        1.961543   -1.025227   -0.000006
      7          6           0        0.607557   -0.674436    0.000007
      8          1           0        0.388308    2.791659    0.000224
      9          1           0       -0.113922   -1.468949   -0.000013
 ---------------------------------------------------------------------
                    Distance matrix (angstroms):
                    1          2          3          4          5
     1  N    0.000000
     2  C    1.165842   0.000000
     3  N    4.047852   3.354813   0.000000
     4  N    4.536453   4.072252   1.087678   0.000000
     5  O    3.077975   2.628302   5.624621   6.517829   0.000000
     6  N    3.196479   2.334140   4.760881   5.740798   1.211201
     7  C    2.477963   1.345604   3.389876   4.347644   2.273151
     8  H    0.995202   2.150767   4.655276   4.953746   3.840385
     9  H    3.319318   2.156402   2.800518   3.859079   3.211055
                    6          7          8          9
     6  N    0.000000
     7  C    1.398689   0.000000
     8  H    4.128400   3.473023   0.000000
     9  H    2.122368   1.073212   4.290107   0.000000
 Symmetry turned off by external request.
 Stoichiometry    C2H2N4O
 Framework group  C1[X(C2H2N4O)]
 Deg. of freedom    21
 Full point group                 C1      NOp   1
 Rotational constants (GHZ):           5.8540631           1.0322970           0.8775509
 Standard basis: def2TZVP (5D, 7F)
   229 basis functions,   373 primitive gaussians,   264 cartesian basis functions
    25 alpha electrons       25 beta electrons
       nuclear repulsion energy       230.8100554987 Hartrees.
 NAtoms=    9 NActive=    9 NUniq=    9 SFac= 1.00D+00 NAtFMM=   60 NAOKFM=F Big=F
 Integral buffers will be    131072 words long.
 Raffenetti 2 integral format.
 Two-electron integral symmetry is turned off.
 Nuclear repulsion after empirical dispersion term =      230.8077691320 Hartrees.
 One-electron integrals computed using PRISM.
   1 Symmetry operations used in ECPInt.
 ECPInt:  NShTT=    3655 NPrTT=   11788 LenC2=    3432 LenP2D=    8574.
 LDataN:  DoStor=T MaxTD1= 6 Len=  172
 NBasis=   229 RedAO= T EigKep=  8.92D-05  NBF=   229
 NBsUse=   229 1.00D-06 EigRej= -1.00D+00 NBFU=   229
 Initial guess from the checkpoint file:  "/scratch/23935644/Gau-18296.chk"
 B after Tr=    -0.000099   -0.000070    0.000001
         Rot=    1.000000   -0.000001    0.000000    0.000012 Ang=  -0.00 deg.
 Initial guess <Sx>= 0.0000 <Sy>= 0.0000 <Sz>= 0.0000 <S**2>=-0.0000 S=-0.0000
 ExpMin= 9.52D-02 ExpMax= 2.70D+04 ExpMxC= 9.22D+02 IAcc=2 IRadAn=         4 AccDes= 0.00D+00
 Harris functional with IExCor= 4639 and IRadAn=       4 diagonalized for initial guess.
 HarFok:  IExCor= 4639 AccDes= 0.00D+00 IRadAn=         4 IDoV= 1 UseB2=F ITyADJ=14
 ICtDFT=  3500011 ScaDFX=  1.000000  1.000000  1.000000  1.000000
 FoFCou: FMM=F IPFlag=           0 FMFlag=      100000 FMFlg1=           0
         NFxFlg=           0 DoJE=T BraDBF=F KetDBF=T FulRan=T
         wScrn=  0.000000 ICntrl=       500 IOpCl=  0 I1Cent=   200000004 NGrid=           0
         NMat0=    1 NMatS0=      1 NMatT0=    0 NMatD0=    1 NMtDS0=    0 NMtDT0=    0
 Symmetry not used in FoFCou.
 Requested convergence on RMS density matrix=1.00D-08 within 128 cycles.
 Requested convergence on MAX density matrix=1.00D-06.
 Requested convergence on             energy=1.00D-06.
 No special actions if energy rises.
 Integral accuracy reduced to 1.0D-05 until final iterations.
 Initial convergence to 1.0D-05 achieved.  Increase integral accuracy.
 SCF Done:  E(UwB97XD) =  -371.535492276     A.U. after   12 cycles
            NFock= 12  Conv=0.67D-08     -V/T= 2.0039
 <Sx>= 0.0000 <Sy>= 0.0000 <Sz>= 0.0000 <S**2>=-0.0000 S=-0.0000
 <L.S>=  0.00000000000    
 Annihilation of the first spin contaminant:
 S**2 before annihilation    -0.0000,   after    -0.0000
 DoSCS=F DFT=T ScalE2(SS,OS)=  1.000000  1.000000
 Range of M.O.s used for correlation:     1   229
 NBasis=   229 NAE=    25 NBE=    25 NFC=     0 NFV=     0
 NROrb=    229 NOA=    25 NOB=    25 NVA=   204 NVB=   204

 **** Warning!!: The largest alpha MO coefficient is  0.23887661D+02


 **** Warning!!: The largest beta MO coefficient is  0.23887661D+02

 Symmetrizing basis deriv contribution to polar:
 IMax=3 JMax=2 DiffMx= 0.00D+00
   1 Symmetry operations used in ECPInt.
 ECPInt:  NShTT=    3655 NPrTT=   11788 LenC2=    3432 LenP2D=    8574.
 LDataN:  DoStor=T MaxTD1= 7 Len=  274
 Calling FoFJK, ICntrl=      2147 FMM=F ISym2X=0 I1Cent= 0 IOpClX= 1 NMat=1 NMatS=1 NMatT=0.
 -------------------------------------------------------------------
 Center     Atomic                   Forces (Hartrees/Bohr)
 Number     Number              X              Y              Z
 -------------------------------------------------------------------
      1        7          -0.007331896    0.006237871   -0.000010203
      2        6           0.009479761   -0.000351953    0.000004791
      3        7          -0.000507710   -0.000006463   -0.000000008
      4        7          -0.000406906    0.000153522   -0.000000004
      5        8          -0.004978245    0.002917335    0.000000885
      6        7          -0.000046591   -0.006323563   -0.000000378
      7        6           0.002411654   -0.000305969    0.000000209
      8        1           0.001493862   -0.002556315    0.000005020
      9        1          -0.000113929    0.000235535   -0.000000311
 -------------------------------------------------------------------
 Cartesian Forces:  Max     0.009479761 RMS     0.003168903
 IRC-IRC-IRC-IRC-IRC-IRC-IRC-IRC-IRC-IRC-IRC-IRC-IRC-IRC-IRC-IRC-IRC-IRC
 Error in corrector energy =          -0.0000552638
 Magnitude of corrector gradient =     0.0170333668
 Magnitude of analytic gradient =      0.0164661011
 Magnitude of difference =             0.0093063448
 Angle between gradients (degrees)=   32.2017
 Pt 33 Step number  20 out of a maximum of  20
 Modified Bulirsch-Stoer Extrapolation Cycles:
    EPS =    0.000010000000000
      PEZero:  N= 2 I= 1 D=  7.93D-04 Err=  3.22D-05
      PEZero:  N= 3 I= 2 D=  7.93D-04 Err=  2.14D-05
      PEZero:  N= 3 I= 1 D=  1.59D-03 Err=  2.90D-07
 Maximum DWI energy   std dev =  0.000012945 at pt    64
 Maximum DWI gradient std dev =  0.110559284 at pt    30
 CORRECTOR INTEGRATION CONVERGENCE:
   Recorrection delta-x convergence threshold:    0.010000
   Delta-x Convergence NOT Met
 Maximum number of corrector steps exceded.
 Error termination via Lnk1e in /software/kemi/g16/avx2/g16/l123.exe at Wed Jun 23 05:49:41 2021.
 Job cpu time:       0 days 13 hours 52 minutes 48.0 seconds.
 Elapsed time:       0 days  3 hours 30 minutes 46.1 seconds.
 File lengths (MBytes):  RWF=     87 Int=      0 D2E=      0 Chk=      7 Scr=      1
