 Entering Gaussian System, Link 0=/software/kemi/g16/avx2/g16/g16
 Initial command:
 /software/kemi/g16/avx2/g16/l1.exe "/scratch/23935644/Gau-14163.inp" -scrdir="/scratch/23935644/"
 Entering Link 1 = /software/kemi/g16/avx2/g16/l1.exe PID=     14164.
  
 Copyright (c) 1988,1990,1992,1993,1995,1998,2003,2009,2016,
            Gaussian, Inc.  All Rights Reserved.
  
 This is part of the Gaussian(R) 16 program.  It is based on
 the Gaussian(R) 09 system (copyright 2009, Gaussian, Inc.),
 the Gaussian(R) 03 system (copyright 2003, Gaussian, Inc.),
 the Gaussian(R) 98 system (copyright 1998, Gaussian, Inc.),
 the Gaussian(R) 94 system (copyright 1995, Gaussian, Inc.),
 the Gaussian 92(TM) system (copyright 1992, Gaussian, Inc.),
 the Gaussian 90(TM) system (copyright 1990, Gaussian, Inc.),
 the Gaussian 88(TM) system (copyright 1988, Gaussian, Inc.),
 the Gaussian 86(TM) system (copyright 1986, Carnegie Mellon
 University), and the Gaussian 82(TM) system (copyright 1983,
 Carnegie Mellon University). Gaussian is a federally registered
 trademark of Gaussian, Inc.
  
 This software contains proprietary and confidential information,
 including trade secrets, belonging to Gaussian, Inc.
  
 This software is provided under written license and may be
 used, copied, transmitted, or stored only in accord with that
 written license.
  
 The following legend is applicable only to US Government
 contracts under FAR:
  
                    RESTRICTED RIGHTS LEGEND
  
 Use, reproduction and disclosure by the US Government is
 subject to restrictions as set forth in subparagraphs (a)
 and (c) of the Commercial Computer Software - Restricted
 Rights clause in FAR 52.227-19.
  
 Gaussian, Inc.
 340 Quinnipiac St., Bldg. 40, Wallingford CT 06492
  
  
 ---------------------------------------------------------------
 Warning -- This program may not be used in any manner that
 competes with the business of Gaussian, Inc. or will provide
 assistance to any competitor of Gaussian, Inc.  The licensee
 of this program is prohibited from giving any competitor of
 Gaussian, Inc. access to this program.  By using this program,
 the user acknowledges that Gaussian, Inc. is engaged in the
 business of creating and licensing software in the field of
 computational chemistry and represents and warrants to the
 licensee that it is not a competitor of Gaussian, Inc. and that
 it will not use this program in any manner prohibited above.
 ---------------------------------------------------------------
  

 Cite this work as:
 Gaussian 16, Revision A.03,
 M. J. Frisch, G. W. Trucks, H. B. Schlegel, G. E. Scuseria, 
 M. A. Robb, J. R. Cheeseman, G. Scalmani, V. Barone, 
 G. A. Petersson, H. Nakatsuji, X. Li, M. Caricato, A. V. Marenich, 
 J. Bloino, B. G. Janesko, R. Gomperts, B. Mennucci, H. P. Hratchian, 
 J. V. Ortiz, A. F. Izmaylov, J. L. Sonnenberg, D. Williams-Young, 
 F. Ding, F. Lipparini, F. Egidi, J. Goings, B. Peng, A. Petrone, 
 T. Henderson, D. Ranasinghe, V. G. Zakrzewski, J. Gao, N. Rega, 
 G. Zheng, W. Liang, M. Hada, M. Ehara, K. Toyota, R. Fukuda, 
 J. Hasegawa, M. Ishida, T. Nakajima, Y. Honda, O. Kitao, H. Nakai, 
 T. Vreven, K. Throssell, J. A. Montgomery, Jr., J. E. Peralta, 
 F. Ogliaro, M. J. Bearpark, J. J. Heyd, E. N. Brothers, K. N. Kudin, 
 V. N. Staroverov, T. A. Keith, R. Kobayashi, J. Normand, 
 K. Raghavachari, A. P. Rendell, J. C. Burant, S. S. Iyengar, 
 J. Tomasi, M. Cossi, J. M. Millam, M. Klene, C. Adamo, R. Cammi, 
 J. W. Ochterski, R. L. Martin, K. Morokuma, O. Farkas, 
 J. B. Foresman, and D. J. Fox, Gaussian, Inc., Wallingford CT, 2016.
 
 ******************************************
 Gaussian 16:  ES64L-G16RevA.03 25-Dec-2016
                22-Jun-2021 
 ******************************************
 %nprocshared=4
 Will use up to    4 processors via shared memory.
 %mem=8GB
 ------------------
 # UwB97XD/Def2TZVP
 ------------------
 1/38=1,172=1/1;
 2/12=2,17=6,18=5,40=1/2;
 3/5=44,7=101,11=2,25=1,30=1,74=-58,116=2/1,2,3;
 4//1;
 5/5=2,38=5/2;
 6/7=2,8=2,9=2,10=2,28=1/1;
 99/5=1,9=1/99;
 ---------------
 something title
 ---------------
 Symbolic Z-matrix:
 Charge =  0 Multiplicity = 1
 N                    -0.50903  -0.15843  -1.28723 
 C                    -0.44446  -0.86052  -0.20819 
 N                    -1.53428  -1.09124   0.53935 
 N                    -2.62679  -1.40514   0.70836 
 O                     3.06869  -1.40958  -0.28299 
 N                     1.8556   -1.36507  -0.29439 
 C                     0.82128  -1.21808   0.42389 
 H                    -1.42093   0.2218   -1.53832 
 H                     0.76599  -1.52569   1.46183 
 
                          Input orientation:                          
 ---------------------------------------------------------------------
 Center     Atomic      Atomic             Coordinates (Angstroms)
 Number     Number       Type             X           Y           Z
 ---------------------------------------------------------------------
      1          7           0       -0.509028   -0.158430   -1.287226
      2          6           0       -0.444455   -0.860516   -0.208187
      3          7           0       -1.534278   -1.091244    0.539347
      4          7           0       -2.626794   -1.405144    0.708360
      5          8           0        3.068692   -1.409583   -0.282987
      6          7           0        1.855595   -1.365074   -0.294385
      7          6           0        0.821281   -1.218083    0.423889
      8          1           0       -1.420927    0.221795   -1.538319
      9          1           0        0.765988   -1.525686    1.461829
 ---------------------------------------------------------------------
                    Distance matrix (angstroms):
                    1          2          3          4          5
     1  N    0.000000
     2  C    1.288961   0.000000
     3  N    2.292956   1.341550   0.000000
     4  N    3.165690   2.428844   1.149213   0.000000
     5  O    3.920964   3.556581   4.686673   5.781120   0.000000
     6  N    2.834284   2.356319   3.501618   4.593355   1.213967
     7  C    2.412571   1.459268   2.361795   3.464843   2.363726
     8  H    1.019401   1.973359   2.460410   3.024667   4.939021
     9  H    3.324509   2.167159   2.516135   3.477530   2.891420
                    6          7          8          9
     6  N    0.000000
     7  C    1.267805   0.000000
     8  H    3.847223   3.309230   0.000000
     9  H    2.073000   1.083972   4.103313   0.000000
 Stoichiometry    C2H2N4O
 Framework group  C1[X(C2H2N4O)]
 Deg. of freedom    21
 Full point group                 C1      NOp   1
 Largest Abelian subgroup         C1      NOp   1
 Largest concise Abelian subgroup C1      NOp   1
                         Standard orientation:                         
 ---------------------------------------------------------------------
 Center     Atomic      Atomic             Coordinates (Angstroms)
 Number     Number       Type             X           Y           Z
 ---------------------------------------------------------------------
      1          7           0       -0.551135    1.552158    0.036038
      2          6           0       -0.565614    0.263305    0.027840
      3          7           0       -1.717036   -0.421158    0.101953
      4          7           0       -2.798397   -0.664837   -0.201310
      5          8           0        2.961200   -0.188271   -0.055453
      6          7           0        1.757385   -0.079465   -0.168180
      7          6           0        0.639172   -0.538786    0.213857
      8          1           0       -1.451025    2.024802    0.113393
      9          1           0        0.484364   -1.572635    0.500540
 ---------------------------------------------------------------------
 Rotational constants (GHZ):           9.0321978           1.4364498           1.2515662
 Standard basis: def2TZVP (5D, 7F)
 There are   264 symmetry adapted cartesian basis functions of A   symmetry.
 There are   229 symmetry adapted basis functions of A   symmetry.
   229 basis functions,   373 primitive gaussians,   264 cartesian basis functions
    25 alpha electrons       25 beta electrons
       nuclear repulsion energy       255.7600116988 Hartrees.
 NAtoms=    9 NActive=    9 NUniq=    9 SFac= 1.00D+00 NAtFMM=   60 NAOKFM=F Big=F
 Integral buffers will be    131072 words long.
 Raffenetti 2 integral format.
 Two-electron integral symmetry is turned on.
 Nuclear repulsion after empirical dispersion term =      255.7574842306 Hartrees.
 One-electron integrals computed using PRISM.
   1 Symmetry operations used in ECPInt.
 ECPInt:  NShTT=    3655 NPrTT=   11788 LenC2=    3520 LenP2D=    9047.
 LDataN:  DoStor=T MaxTD1= 6 Len=  172
 NBasis=   229 RedAO= T EigKep=  2.03D-04  NBF=   229
 NBsUse=   229 1.00D-06 EigRej= -1.00D+00 NBFU=   229
 ExpMin= 9.52D-02 ExpMax= 2.70D+04 ExpMxC= 9.22D+02 IAcc=3 IRadAn=         5 AccDes= 0.00D+00
 Harris functional with IExCor= 4639 and IRadAn=       5 diagonalized for initial guess.
 HarFok:  IExCor= 4639 AccDes= 0.00D+00 IRadAn=         5 IDoV= 1 UseB2=F ITyADJ=14
 ICtDFT=  3500011 ScaDFX=  1.000000  1.000000  1.000000  1.000000
 FoFCou: FMM=F IPFlag=           0 FMFlag=      100000 FMFlg1=           0
         NFxFlg=           0 DoJE=T BraDBF=F KetDBF=T FulRan=T
         wScrn=  0.000000 ICntrl=       500 IOpCl=  0 I1Cent=   200000004 NGrid=           0
         NMat0=    1 NMatS0=      1 NMatT0=    0 NMatD0=    1 NMtDS0=    0 NMtDT0=    0
 Petite list used in FoFCou.
 Initial guess <Sx>= 0.0000 <Sy>= 0.0000 <Sz>= 0.0000 <S**2>= 0.0000 S= 0.0000
 Requested convergence on RMS density matrix=1.00D-08 within 128 cycles.
 Requested convergence on MAX density matrix=1.00D-06.
 Requested convergence on             energy=1.00D-06.
 No special actions if energy rises.
 Integral accuracy reduced to 1.0D-05 until final iterations.
 Initial convergence to 1.0D-05 achieved.  Increase integral accuracy.
 SCF Done:  E(UwB97XD) =  -371.402164865     A.U. after   26 cycles
            NFock= 26  Conv=0.82D-08     -V/T= 2.0040
 <Sx>= 0.0000 <Sy>= 0.0000 <Sz>= 0.0000 <S**2>=-0.0000 S=-0.0000
 <L.S>=  0.00000000000    
 Annihilation of the first spin contaminant:
 S**2 before annihilation    -0.0000,   after    -0.0000

 **********************************************************************

            Population analysis using the SCF density.

 **********************************************************************

 Orbital symmetries:
 Alpha Orbitals:
       Occupied  (A) (A) (A) (A) (A) (A) (A) (A) (A) (A) (A) (A)
                 (A) (A) (A) (A) (A) (A) (A) (A) (A) (A) (A) (A)
                 (A)
       Virtual   (A) (A) (A) (A) (A) (A) (A) (A) (A) (A) (A) (A)
                 (A) (A) (A) (A) (A) (A) (A) (A) (A) (A) (A) (A)
                 (A) (A) (A) (A) (A) (A) (A) (A) (A) (A) (A) (A)
                 (A) (A) (A) (A) (A) (A) (A) (A) (A) (A) (A) (A)
                 (A) (A) (A) (A) (A) (A) (A) (A) (A) (A) (A) (A)
                 (A) (A) (A) (A) (A) (A) (A) (A) (A) (A) (A) (A)
                 (A) (A) (A) (A) (A) (A) (A) (A) (A) (A) (A) (A)
                 (A) (A) (A) (A) (A) (A) (A) (A) (A) (A) (A) (A)
                 (A) (A) (A) (A) (A) (A) (A) (A) (A) (A) (A) (A)
                 (A) (A) (A) (A) (A) (A) (A) (A) (A) (A) (A) (A)
                 (A) (A) (A) (A) (A) (A) (A) (A) (A) (A) (A) (A)
                 (A) (A) (A) (A) (A) (A) (A) (A) (A) (A) (A) (A)
                 (A) (A) (A) (A) (A) (A) (A) (A) (A) (A) (A) (A)
                 (A) (A) (A) (A) (A) (A) (A) (A) (A) (A) (A) (A)
                 (A) (A) (A) (A) (A) (A) (A) (A) (A) (A) (A) (A)
                 (A) (A) (A) (A) (A) (A) (A) (A) (A) (A) (A) (A)
                 (A) (A) (A) (A) (A) (A) (A) (A) (A) (A) (A) (A)
 Beta  Orbitals:
       Occupied  (A) (A) (A) (A) (A) (A) (A) (A) (A) (A) (A) (A)
                 (A) (A) (A) (A) (A) (A) (A) (A) (A) (A) (A) (A)
                 (A)
       Virtual   (A) (A) (A) (A) (A) (A) (A) (A) (A) (A) (A) (A)
                 (A) (A) (A) (A) (A) (A) (A) (A) (A) (A) (A) (A)
                 (A) (A) (A) (A) (A) (A) (A) (A) (A) (A) (A) (A)
                 (A) (A) (A) (A) (A) (A) (A) (A) (A) (A) (A) (A)
                 (A) (A) (A) (A) (A) (A) (A) (A) (A) (A) (A) (A)
                 (A) (A) (A) (A) (A) (A) (A) (A) (A) (A) (A) (A)
                 (A) (A) (A) (A) (A) (A) (A) (A) (A) (A) (A) (A)
                 (A) (A) (A) (A) (A) (A) (A) (A) (A) (A) (A) (A)
                 (A) (A) (A) (A) (A) (A) (A) (A) (A) (A) (A) (A)
                 (A) (A) (A) (A) (A) (A) (A) (A) (A) (A) (A) (A)
                 (A) (A) (A) (A) (A) (A) (A) (A) (A) (A) (A) (A)
                 (A) (A) (A) (A) (A) (A) (A) (A) (A) (A) (A) (A)
                 (A) (A) (A) (A) (A) (A) (A) (A) (A) (A) (A) (A)
                 (A) (A) (A) (A) (A) (A) (A) (A) (A) (A) (A) (A)
                 (A) (A) (A) (A) (A) (A) (A) (A) (A) (A) (A) (A)
                 (A) (A) (A) (A) (A) (A) (A) (A) (A) (A) (A) (A)
                 (A) (A) (A) (A) (A) (A) (A) (A) (A) (A) (A) (A)
 The electronic state is 1-A.
 Alpha  occ. eigenvalues --  -19.29833 -14.63524 -14.59916 -14.55371 -14.44311
 Alpha  occ. eigenvalues --  -10.42163 -10.35347  -1.27808  -1.24892  -1.07288
 Alpha  occ. eigenvalues --   -0.97357  -0.92663  -0.74181  -0.67021  -0.64123
 Alpha  occ. eigenvalues --   -0.63211  -0.61872  -0.59700  -0.57152  -0.56042
 Alpha  occ. eigenvalues --   -0.49021  -0.45726  -0.39412  -0.33853  -0.25439
 Alpha virt. eigenvalues --   -0.09713  -0.05033   0.02171   0.09735   0.13526
 Alpha virt. eigenvalues --    0.15023   0.18508   0.19416   0.24159   0.27001
 Alpha virt. eigenvalues --    0.28288   0.30114   0.31988   0.32637   0.34107
 Alpha virt. eigenvalues --    0.35956   0.37879   0.40270   0.41583   0.44539
 Alpha virt. eigenvalues --    0.45042   0.46315   0.48122   0.49139   0.50770
 Alpha virt. eigenvalues --    0.53206   0.53977   0.54436   0.54757   0.56992
 Alpha virt. eigenvalues --    0.57577   0.59936   0.61630   0.63980   0.64279
 Alpha virt. eigenvalues --    0.67481   0.70350   0.71791   0.75483   0.78555
 Alpha virt. eigenvalues --    0.79293   0.81713   0.86738   0.90807   0.92369
 Alpha virt. eigenvalues --    0.99491   1.00270   1.01314   1.05046   1.08937
 Alpha virt. eigenvalues --    1.11458   1.14150   1.22112   1.24532   1.29653
 Alpha virt. eigenvalues --    1.30297   1.31016   1.32399   1.38805   1.42573
 Alpha virt. eigenvalues --    1.43503   1.46880   1.49700   1.50746   1.53560
 Alpha virt. eigenvalues --    1.55944   1.58520   1.60542   1.63226   1.66189
 Alpha virt. eigenvalues --    1.68379   1.71084   1.75974   1.77772   1.79725
 Alpha virt. eigenvalues --    1.84395   1.86567   1.89351   1.91420   1.97435
 Alpha virt. eigenvalues --    2.01745   2.05270   2.07052   2.10367   2.12240
 Alpha virt. eigenvalues --    2.14142   2.18119   2.22199   2.24024   2.25014
 Alpha virt. eigenvalues --    2.29507   2.31915   2.36566   2.40530   2.43646
 Alpha virt. eigenvalues --    2.46047   2.49587   2.56501   2.59953   2.63954
 Alpha virt. eigenvalues --    2.65768   2.66751   2.73653   2.80350   2.85158
 Alpha virt. eigenvalues --    2.87803   2.91421   2.93294   2.96348   2.98533
 Alpha virt. eigenvalues --    3.01735   3.06928   3.10941   3.12276   3.15605
 Alpha virt. eigenvalues --    3.19572   3.23426   3.26722   3.26967   3.34635
 Alpha virt. eigenvalues --    3.37115   3.42897   3.45664   3.48487   3.54779
 Alpha virt. eigenvalues --    3.56794   3.60869   3.64520   3.70384   3.72730
 Alpha virt. eigenvalues --    3.73519   3.74931   3.78831   3.82527   3.85420
 Alpha virt. eigenvalues --    3.89817   3.93642   4.03618   4.03880   4.07429
 Alpha virt. eigenvalues --    4.09666   4.20269   4.22611   4.30117   4.32112
 Alpha virt. eigenvalues --    4.37915   4.38417   4.42332   4.43702   4.47926
 Alpha virt. eigenvalues --    4.51280   4.56186   4.61177   4.63035   4.67270
 Alpha virt. eigenvalues --    4.70619   4.73157   4.75425   4.78157   4.79694
 Alpha virt. eigenvalues --    4.83844   4.89175   4.90913   4.92325   4.99464
 Alpha virt. eigenvalues --    5.03250   5.04019   5.07330   5.10001   5.10520
 Alpha virt. eigenvalues --    5.14139   5.21095   5.23668   5.25015   5.25131
 Alpha virt. eigenvalues --    5.37107   5.38766   5.44674   5.55055   5.56750
 Alpha virt. eigenvalues --    5.68631   5.76984   5.78964   5.85348   5.99723
 Alpha virt. eigenvalues --    6.34876   6.35444   6.36314   6.48213   6.52571
 Alpha virt. eigenvalues --    6.57508   6.70963   6.84680   7.00250   7.11636
 Alpha virt. eigenvalues --    7.29384   7.44474  22.87115  23.29106  31.69094
 Alpha virt. eigenvalues --   32.07710  32.48053  32.86178  44.11272
  Beta  occ. eigenvalues --  -19.29833 -14.63524 -14.59916 -14.55371 -14.44311
  Beta  occ. eigenvalues --  -10.42163 -10.35347  -1.27808  -1.24892  -1.07288
  Beta  occ. eigenvalues --   -0.97357  -0.92663  -0.74181  -0.67021  -0.64123
  Beta  occ. eigenvalues --   -0.63211  -0.61872  -0.59700  -0.57152  -0.56042
  Beta  occ. eigenvalues --   -0.49021  -0.45726  -0.39412  -0.33853  -0.25439
  Beta virt. eigenvalues --   -0.09713  -0.05033   0.02171   0.09735   0.13526
  Beta virt. eigenvalues --    0.15023   0.18508   0.19416   0.24159   0.27001
  Beta virt. eigenvalues --    0.28288   0.30114   0.31988   0.32637   0.34107
  Beta virt. eigenvalues --    0.35956   0.37879   0.40270   0.41583   0.44539
  Beta virt. eigenvalues --    0.45042   0.46315   0.48122   0.49139   0.50770
  Beta virt. eigenvalues --    0.53206   0.53977   0.54436   0.54757   0.56992
  Beta virt. eigenvalues --    0.57577   0.59936   0.61630   0.63980   0.64279
  Beta virt. eigenvalues --    0.67481   0.70350   0.71791   0.75483   0.78555
  Beta virt. eigenvalues --    0.79293   0.81713   0.86738   0.90807   0.92369
  Beta virt. eigenvalues --    0.99491   1.00270   1.01314   1.05046   1.08937
  Beta virt. eigenvalues --    1.11458   1.14150   1.22112   1.24532   1.29653
  Beta virt. eigenvalues --    1.30297   1.31016   1.32399   1.38805   1.42573
  Beta virt. eigenvalues --    1.43503   1.46880   1.49700   1.50746   1.53560
  Beta virt. eigenvalues --    1.55944   1.58520   1.60542   1.63226   1.66189
  Beta virt. eigenvalues --    1.68379   1.71084   1.75974   1.77772   1.79725
  Beta virt. eigenvalues --    1.84395   1.86567   1.89351   1.91420   1.97435
  Beta virt. eigenvalues --    2.01745   2.05270   2.07052   2.10367   2.12240
  Beta virt. eigenvalues --    2.14142   2.18119   2.22199   2.24024   2.25014
  Beta virt. eigenvalues --    2.29507   2.31915   2.36566   2.40530   2.43646
  Beta virt. eigenvalues --    2.46047   2.49587   2.56501   2.59953   2.63954
  Beta virt. eigenvalues --    2.65768   2.66751   2.73653   2.80350   2.85158
  Beta virt. eigenvalues --    2.87803   2.91421   2.93294   2.96348   2.98533
  Beta virt. eigenvalues --    3.01735   3.06928   3.10941   3.12276   3.15605
  Beta virt. eigenvalues --    3.19572   3.23426   3.26722   3.26967   3.34635
  Beta virt. eigenvalues --    3.37115   3.42897   3.45664   3.48487   3.54779
  Beta virt. eigenvalues --    3.56794   3.60869   3.64520   3.70384   3.72730
  Beta virt. eigenvalues --    3.73519   3.74931   3.78831   3.82527   3.85420
  Beta virt. eigenvalues --    3.89817   3.93642   4.03618   4.03880   4.07429
  Beta virt. eigenvalues --    4.09666   4.20269   4.22611   4.30117   4.32112
  Beta virt. eigenvalues --    4.37915   4.38417   4.42332   4.43702   4.47926
  Beta virt. eigenvalues --    4.51280   4.56186   4.61177   4.63035   4.67270
  Beta virt. eigenvalues --    4.70619   4.73157   4.75425   4.78157   4.79694
  Beta virt. eigenvalues --    4.83844   4.89175   4.90913   4.92325   4.99464
  Beta virt. eigenvalues --    5.03250   5.04019   5.07330   5.10001   5.10520
  Beta virt. eigenvalues --    5.14139   5.21095   5.23668   5.25015   5.25131
  Beta virt. eigenvalues --    5.37107   5.38766   5.44674   5.55055   5.56750
  Beta virt. eigenvalues --    5.68631   5.76984   5.78964   5.85348   5.99723
  Beta virt. eigenvalues --    6.34876   6.35444   6.36314   6.48213   6.52571
  Beta virt. eigenvalues --    6.57508   6.70963   6.84680   7.00250   7.11636
  Beta virt. eigenvalues --    7.29384   7.44474  22.87115  23.29106  31.69094
  Beta virt. eigenvalues --   32.07710  32.48053  32.86178  44.11272
          Condensed to atoms (all electrons):
               1          2          3          4          5          6
     1  N    6.530894   0.689848  -0.083316  -0.004351  -0.000533  -0.002656
     2  C    0.689848   4.809788   0.290753  -0.063382   0.003770  -0.086282
     3  N   -0.083316   0.290753   6.311268   0.415938  -0.000134   0.001166
     4  N   -0.004351  -0.063382   0.415938   6.685972  -0.000002   0.001183
     5  O   -0.000533   0.003770  -0.000134  -0.000002   8.104132   0.248025
     6  N   -0.002656  -0.086282   0.001166   0.001183   0.248025   6.134734
     7  C   -0.094900   0.289075  -0.044874   0.003862  -0.064708   0.555241
     8  H    0.343153  -0.056890  -0.010852   0.000762   0.000004   0.000418
     9  H   -0.001872  -0.132608   0.023836   0.005870   0.004515  -0.023243
               7          8          9
     1  N   -0.094900   0.343153  -0.001872
     2  C    0.289075  -0.056890  -0.132608
     3  N   -0.044874  -0.010852   0.023836
     4  N    0.003862   0.000762   0.005870
     5  O   -0.064708   0.000004   0.004515
     6  N    0.555241   0.000418  -0.023243
     7  C    5.069064   0.014437   0.429213
     8  H    0.014437   0.486476  -0.000255
     9  H    0.429213  -0.000255   0.567253
          Atomic-Atomic Spin Densities.
               1          2          3          4          5          6
     1  N    0.000000  -0.000000  -0.000000   0.000000  -0.000000   0.000000
     2  C   -0.000000   0.000000   0.000000  -0.000000  -0.000000  -0.000000
     3  N   -0.000000   0.000000   0.000000  -0.000000   0.000000  -0.000000
     4  N    0.000000  -0.000000  -0.000000   0.000000  -0.000000   0.000000
     5  O   -0.000000  -0.000000   0.000000  -0.000000  -0.000000   0.000000
     6  N    0.000000  -0.000000  -0.000000   0.000000   0.000000  -0.000000
     7  C   -0.000000  -0.000000   0.000000   0.000000  -0.000000   0.000000
     8  H   -0.000000   0.000000  -0.000000   0.000000  -0.000000   0.000000
     9  H   -0.000000   0.000000   0.000000  -0.000000  -0.000000   0.000000
               7          8          9
     1  N   -0.000000  -0.000000  -0.000000
     2  C   -0.000000   0.000000   0.000000
     3  N    0.000000  -0.000000   0.000000
     4  N    0.000000   0.000000  -0.000000
     5  O   -0.000000  -0.000000  -0.000000
     6  N    0.000000   0.000000   0.000000
     7  C   -0.000000   0.000000   0.000000
     8  H    0.000000  -0.000000   0.000000
     9  H    0.000000   0.000000  -0.000000
 Mulliken charges and spin densities:
               1          2
     1  N   -0.376266   0.000000
     2  C    0.255928   0.000000
     3  N    0.096215   0.000000
     4  N   -0.045852   0.000000
     5  O   -0.295068  -0.000000
     6  N    0.171414  -0.000000
     7  C   -0.156410  -0.000000
     8  H    0.222747  -0.000000
     9  H    0.127291  -0.000000
 Sum of Mulliken charges =  -0.00000   0.00000
 Mulliken charges and spin densities with hydrogens summed into heavy atoms:
               1          2
     1  N   -0.153519   0.000000
     2  C    0.255928   0.000000
     3  N    0.096215   0.000000
     4  N   -0.045852   0.000000
     5  O   -0.295068  -0.000000
     6  N    0.171414  -0.000000
     7  C   -0.029118  -0.000000
 Electronic spatial extent (au):  <R**2>=            831.9854
 Charge=             -0.0000 electrons
 Dipole moment (field-independent basis, Debye):
    X=             -4.5862    Y=             -1.6749    Z=              0.6317  Tot=              4.9231
 Quadrupole moment (field-independent basis, Debye-Ang):
   XX=            -45.1322   YY=            -38.0739   ZZ=            -39.4210
   XY=             -3.1075   XZ=              0.0069   YZ=              0.1707
 Traceless Quadrupole moment (field-independent basis, Debye-Ang):
   XX=             -4.2565   YY=              2.8018   ZZ=              1.4547
   XY=             -3.1075   XZ=              0.0069   YZ=              0.1707
 Octapole moment (field-independent basis, Debye-Ang**2):
  XXX=            -22.7457  YYY=             -5.0043  ZZZ=             -0.5867  XYY=             -4.1007
  XXY=              8.5098  XXZ=              2.4251  XZZ=              1.0902  YZZ=             -1.0582
  YYZ=              1.0860  XYZ=              0.3651
 Hexadecapole moment (field-independent basis, Debye-Ang**3):
 XXXX=           -915.6334 YYYY=           -170.1393 ZZZZ=            -43.0509 XXXY=            -15.2163
 XXXZ=             -2.8516 YYYX=            -16.0844 YYYZ=              0.3467 ZZZX=             -1.0114
 ZZZY=              1.0511 XXYY=           -150.5427 XXZZ=           -141.8213 YYZZ=            -38.0791
 XXYZ=              2.1286 YYXZ=             -1.0631 ZZXY=             -0.5069
 N-N= 2.557574842306D+02 E-N=-1.380083155890D+03  KE= 3.699267146600D+02
                          Isotropic Fermi Contact Couplings
        Atom                 a.u.       MegaHertz       Gauss      10(-4) cm-1
     1  N(14)              0.00000       0.00000       0.00000       0.00000
     2  C(13)              0.00000       0.00000       0.00000       0.00000
     3  N(14)              0.00000       0.00000       0.00000       0.00000
     4  N(14)              0.00000       0.00000       0.00000       0.00000
     5  O(17)             -0.00000       0.00000       0.00000       0.00000
     6  N(14)             -0.00000      -0.00000      -0.00000      -0.00000
     7  C(13)             -0.00000      -0.00000      -0.00000      -0.00000
     8  H(1)              -0.00000      -0.00000      -0.00000      -0.00000
     9  H(1)              -0.00000      -0.00000      -0.00000      -0.00000
 --------------------------------------------------------
       Center         ----  Spin Dipole Couplings  ----
                      3XX-RR        3YY-RR        3ZZ-RR
 --------------------------------------------------------
     1   Atom       -0.000000     -0.000000      0.000000
     2   Atom       -0.000000      0.000000      0.000000
     3   Atom       -0.000000     -0.000000      0.000000
     4   Atom       -0.000000     -0.000000      0.000000
     5   Atom        0.000000     -0.000000      0.000000
     6   Atom        0.000000     -0.000000      0.000000
     7   Atom        0.000000      0.000000     -0.000000
     8   Atom        0.000000     -0.000000     -0.000000
     9   Atom        0.000000     -0.000000      0.000000
 --------------------------------------------------------
                        XY            XZ            YZ
 --------------------------------------------------------
     1   Atom        0.000000      0.000000      0.000000
     2   Atom        0.000000      0.000000      0.000000
     3   Atom        0.000000     -0.000000     -0.000000
     4   Atom        0.000000     -0.000000     -0.000000
     5   Atom        0.000000     -0.000000      0.000000
     6   Atom        0.000000     -0.000000      0.000000
     7   Atom       -0.000000      0.000000      0.000000
     8   Atom       -0.000000      0.000000      0.000000
     9   Atom       -0.000000      0.000000      0.000000
 --------------------------------------------------------


 ---------------------------------------------------------------------------------
              Anisotropic Spin Dipole Couplings in Principal Axis System
 ---------------------------------------------------------------------------------

       Atom             a.u.   MegaHertz   Gauss  10(-4) cm-1        Axes

              Baa    -0.0000    -0.000    -0.000    -0.000  0.9131 -0.3972 -0.0915
     1 N(14)  Bbb    -0.0000    -0.000    -0.000    -0.000  0.3866  0.9151 -0.1144
              Bcc     0.0000     0.000     0.000     0.000  0.1292  0.0690  0.9892
 
              Baa    -0.0000    -0.000    -0.000    -0.000  0.8600 -0.2468 -0.4467
     2 C(13)  Bbb    -0.0000    -0.000    -0.000    -0.000 -0.0836  0.7953 -0.6004
              Bcc     0.0000     0.000     0.000     0.000  0.5034  0.5537  0.6633
 
              Baa    -0.0000    -0.000    -0.000    -0.000 -0.3078  0.9485  0.0749
     3 N(14)  Bbb    -0.0000    -0.000    -0.000    -0.000  0.9512  0.3048  0.0485
              Bcc     0.0000     0.000     0.000     0.000 -0.0231 -0.0861  0.9960
 
              Baa    -0.0000    -0.000    -0.000    -0.000  0.9814 -0.1147  0.1541
     4 N(14)  Bbb    -0.0000    -0.000    -0.000    -0.000  0.0872  0.9807  0.1747
              Bcc     0.0000     0.000     0.000     0.000 -0.1711 -0.1580  0.9725
 
              Baa    -0.0000     0.000     0.000     0.000 -0.0896  0.9659 -0.2430
     5 O(17)  Bbb     0.0000    -0.000    -0.000    -0.000  0.9884  0.1163  0.0981
              Bcc     0.0000    -0.000    -0.000    -0.000 -0.1230  0.2314  0.9651
 
              Baa    -0.0000    -0.000    -0.000    -0.000 -0.1157  0.9146 -0.3874
     6 N(14)  Bbb     0.0000     0.000     0.000     0.000  0.9798  0.0410 -0.1958
              Bcc     0.0000     0.000     0.000     0.000  0.1632  0.4022  0.9009
 
              Baa    -0.0000    -0.000    -0.000    -0.000 -0.5555 -0.1052  0.8248
     7 C(13)  Bbb     0.0000     0.000     0.000     0.000  0.6395  0.5800  0.5047
              Bcc     0.0000     0.000     0.000     0.000 -0.5315  0.8078 -0.2549
 
              Baa    -0.0000    -0.000    -0.000    -0.000  0.4627  0.8635 -0.2006
     8 H(1)   Bbb    -0.0000    -0.000    -0.000    -0.000  0.1485  0.1476  0.9778
              Bcc     0.0000     0.000     0.000     0.000  0.8740 -0.4823 -0.0599
 
              Baa    -0.0000    -0.000    -0.000    -0.000  0.4219  0.8955 -0.1420
     9 H(1)   Bbb     0.0000     0.000     0.000     0.000 -0.3241  0.2952  0.8988
              Bcc     0.0000     0.000     0.000     0.000  0.8468 -0.3331  0.4147
 

 ---------------------------------------------------------------------------------

 1\1\GINC-NODE305\SP\UwB97XD\def2TZVP\C2H2N4O1\MHARRIS\22-Jun-2021\0\\#
  UwB97XD/Def2TZVP\\something title\\0,1\N,0,-0.509028,-0.15843,-1.2872
 26\C,0,-0.444455,-0.860516,-0.208187\N,0,-1.534278,-1.091244,0.539347\
 N,0,-2.626794,-1.405144,0.70836\O,0,3.068692,-1.409583,-0.282987\N,0,1
 .855595,-1.365074,-0.294385\C,0,0.821281,-1.218083,0.423889\H,0,-1.420
 927,0.221795,-1.538319\H,0,0.765988,-1.525686,1.461829\\Version=ES64L-
 G16RevA.03\State=1-A\HF=-371.4021649\S2=0.\S2-1=0.\S2A=0.\RMSD=8.215e-
 09\Dipole=-1.7177345,-0.0270593,0.8945779\Quadrupole=-2.8013874,1.6358
 095,1.1655778,-0.9933323,2.4314644,-0.5249996\PG=C01 [X(C2H2N4O1)]\\@


 LIVE PURE, SPEAK TRUE, RIGHT WRONG, FOLLOW THE KING...
 ELSE, WHEREFORE BORN......
           IDYLLS OF THE KING, TENNYSON
 Job cpu time:       0 days  0 hours 22 minutes 44.5 seconds.
 Elapsed time:       0 days  0 hours  5 minutes 41.8 seconds.
 File lengths (MBytes):  RWF=     54 Int=      0 D2E=      0 Chk=      5 Scr=      1
 Normal termination of Gaussian 16 at Tue Jun 22 15:39:41 2021.
