      -----------------------------------------------------------      
     |                   =====================                   |     
     |                           x T B                           |     
     |                   =====================                   |     
     |                         S. Grimme                         |     
     |          Mulliken Center for Theoretical Chemistry        |     
     |                    University of Bonn                     |     
     |                 Version 6.1.4 (SAW190525)                 |     
      -----------------------------------------------------------      

   This program is distributed in the hope that it will be useful,
   but WITHOUT ANY WARRANTY; without even the implied warranty of
   MERCHANTABILITY or FITNESS FOR A PARTICULAR PURPOSE.
   
   FOR NON-COMMERCIAL, ACADEMIA USE ONLY.
   
   Cite this work as:
   S. Grimme, C. Bannwarth, P. Shushkov, J. Comput. Theory Chem., 2017,
   13, 1989-2009. DOI: 10.1021/acs.jctc.7b00118
   C. Bannwarth, S. Ehlert and S. Grimme., J. Comput. Theory Chem., 2019,
   just accepted. DOI: 10.1021/acs.jctc.8b01176
   
   for sTDA-xTB:
   S. Grimme and C. Bannwarth, J. Chem. Phys., 2016, 145, 054103.
   DOI: 10.1063/1.4959605
   
   in the mass-spec context:
   V. Asgeirsson, C. Bauer and S. Grimme, Chem. Sci., 2017, 8, 4879.
   DOI: 10.1039/c7sc00601b
   
   for metadynamics refer to:
   S. Grimme, J. Chem. Theory Comput. Article ASAP, 2019,
   DOI: 10.1021/acs.jctc.9b00143
   
   with help from (in alphabetical order)
   C. Bannwarth, F. Bohle, G. Brandenburg, E. Caldeweyher, M. Checinski,
   S. Dohm, S. Ehlert, S. Ehrlich, F. März, H. Neugebauer, J. Pisarek,
   P. Pracht, P. Shushkov, and S. Spicher.
   
 * started run on 2021/06/02 at 10:00:08.797     

           -------------------------------------------------
          |                Calculation Setup                |
           -------------------------------------------------

          program call               : /groups/kemi/koerstz/opt/xtb/6.1/bin/xtb path_point_10.xyz --gfn2 --acc 0.2 --chrg 0
          hostname                   : node305
          coordinate file            : path_point_10.xyz
          omp threads                :                     1
          number of atoms            :                     9
          number of electrons        :                    36
          charge                     :                     0
          spin                       :                   0.0
          first test random number   :      0.01061422885498


########################################################################
# WARNING! Please study the warnings concerning your input carefully
#  - XTBPATH is not set, using XTBHOME instead
########################################################################

           ------------------------------------------------- 
          |                 G F N 2 - x T B                 |
          | Geometry, Frequencies, Noncovalent interactions |
          |            JCTC 2018 parametrisation            |
           ------------------------------------------------- 
             k(s)              :                1.8500
             k(p)              :                2.2300
             k(d)              :                2.2300
             k(f)              :                2.0000
             kEN (H0ij)        :               -2.0000
             D4 a1             :                0.5200
             D4 a2             :                5.0000
             D4 s6             :                1.0000
             D4 s8             :                2.7000
             D4 s9             :                5.0000
             alphaj            :                2.0000

  Z AO/shell   Hii/eV     exponent
  1     Wed Apr 25 08:07:45 CEST 2018   EN: 2.200 GM2: 0.406  GM3: 0.0800  RAES: 1.40
     1s    -10.707211    1.230000
  6     Wed Apr 25 08:07:45 CEST 2018   EN: 2.550 GM2: 0.538  GM3: 0.1500  RAES: 3.00
     2s    -13.970922    2.096432
     2p    -10.063292    1.800000
  7     Wed Apr 25 08:07:45 CEST 2018   EN: 3.040 GM2: 0.461  GM3:-0.0640  RAES: 1.90
     2s    -16.686243    2.339881
     2p    -12.523956    2.014332
  8     Wed Apr 25 08:07:45 CEST 2018   EN: 3.440 GM2: 0.452  GM3:-0.0517  RAES: 1.80
     2s    -20.229985    2.439742
     2p    -15.503117    2.137023


            Z     q(EN)     CN     RAES       Cart. coordinates
     1  N   5.0   -0.42    2.01    1.90    -0.92314    -0.34118    -2.44345
     2  C   4.0    0.31    3.01    3.02    -0.84632    -1.69894    -0.41994
     3  N   5.0   -0.15    2.02    1.90    -2.92602    -2.13302     0.95337
     4  N   5.0   -0.15    1.00    1.90    -4.97668    -2.48114     1.44381
     5  O   6.0   -0.10    1.00    1.80     5.79382    -2.53771    -0.65034
     6  N   5.0   -0.15    2.01    1.90     3.54332    -2.51525    -0.42941
     7  C   4.0    0.14    3.01    3.02     1.53542    -2.38764     0.81174
     8  H   1.0    0.33    1.00    1.43    -2.63833     0.39384    -2.93049
     9  H   1.0    0.18    1.00    1.43     1.39272    -2.95115     2.76202

           ------------------------------------------------- 
          |        Self-Consistent Charge Iterations        |
           ------------------------------------------------- 
q/qsh data taken from xtbrestart
CAMM data taken from xtbrestart

          ...................................................
          :                      SETUP                      :
          :.................................................:
          :  # basis functions                  30          :
          :  # atomic orbitals                  30          :
          :  # shells                           16          :
          :  # electrons                        36          :
          :  max. iterations                   250          :
          :  Hamiltonian                  GFN2-xTB          :
          :  restarted?                       true          :
          :  GBSA solvation                  false          :
          :  PC potential                    false          :
          :  electronic temp.          300.0000000     K    :
          :  accuracy                    0.2000000          :
          :  -> integral cutoff          0.3198970E+02      :
          :  -> integral neglect         0.2000000E-08      :
          :  -> SCF convergence          0.2000000E-06 Eh   :
          :  -> wf. convergence          0.2000000E-04 e    :
          :  Broyden damping             0.4000000          :
          ...................................................

 iter      E             dE          RMSdq      gap      omega  full diag
   1    -20.8911539 -0.208912E+02  0.401E+00    0.41       0.0  T
   2    -20.6370548  0.254099E+00  0.687E+00    1.48       1.0  T
   3    -20.8581756 -0.221121E+00  0.433E+00    1.07       1.0  T
   4    -21.0601669 -0.201991E+00  0.138E+00    0.21       1.0  T
   5    -21.0739330 -0.137660E-01  0.867E-01    0.19       1.0  T
   6    -20.9303715  0.143562E+00  0.347E+00    0.39       1.0  T
   7    -21.0342236 -0.103852E+00  0.194E+00    0.21       1.0  T
   8    -21.0821684 -0.479448E-01  0.946E-02    0.17       1.0  T
   9    -21.0747047  0.746373E-02  0.766E-01    0.18       1.0  T
  10    -21.0796996 -0.499489E-02  0.443E-01    0.17       1.0  T
  11    -21.0807302 -0.103063E-02  0.339E-01    0.17       1.0  T
  12    -21.0822011 -0.147089E-02  0.236E-02    0.17       1.4  T
  13    -21.0821902  0.108975E-04  0.373E-02    0.17       1.0  T
  14    -21.0821998 -0.958104E-05  0.250E-02    0.17       1.3  T
  15    -21.0822050 -0.522778E-05  0.150E-02    0.17       2.2  T
  16    -21.0822079 -0.286244E-05  0.927E-04    0.17      36.0  T
  17    -21.0822079  0.102710E-07  0.126E-03    0.17      26.5  T
  18    -21.0822079 -0.192844E-07  0.202E-04    0.17     165.1  T
  19    -21.0822079  0.252783E-09  0.245E-04    0.17     136.1  T
  20    -21.0822079 -0.767038E-09  0.114E-05    0.17    2924.7  T
  21    -21.0822079 -0.140687E-11  0.632E-06    0.17    5271.1  T

   *** convergence criteria satisfied after 21 iterations ***

         #    Occupation            Energy/Eh            Energy/eV
      -------------------------------------------------------------
         1        2.0000           -0.7544102             -20.5285
       ...           ...                  ...                  ...
        12        2.0000           -0.5542411             -15.0817
        13        2.0000           -0.5148007             -14.0084
        14        2.0000           -0.5053786             -13.7521
        15        2.0000           -0.4991213             -13.5818
        16        2.0000           -0.4306074             -11.7174
        17        2.0000           -0.4236256             -11.5274
        18        1.9304           -0.3536663              -9.6238 (HOMO)
        19        0.0696           -0.3473539              -9.4520 (LUMO)
        20                         -0.3299095              -8.9773
        21                         -0.2767742              -7.5314
        22                         -0.1817552              -4.9458
        23                          0.0162916               0.4433
       ...                                ...                  ...
        30                          0.8809685              23.9724
      -------------------------------------------------------------
                  HL-Gap            0.0063124 Eh            0.1718 eV
             Fermi-level           -0.3505101 Eh           -9.5379 eV

 SCC (total)                   0 d,  0 h,  0 min,  0.009 sec
 SCC setup                      ...        0 min,  0.000 sec (  1.287%)
 Dispersion                     ...        0 min,  0.000 sec (  0.595%)
 integral evaluation            ...        0 min,  0.001 sec ( 11.245%)
 zeroth order Hamiltonian       ...        0 min,  0.000 sec (  0.358%)
 iterations                     ...        0 min,  0.006 sec ( 62.243%)
 molecular gradient             ...        0 min,  0.002 sec ( 22.176%)
 printout                       ...        0 min,  0.000 sec (  1.728%)

         :::::::::::::::::::::::::::::::::::::::::::::::::::::
         ::                     SUMMARY                     ::
         :::::::::::::::::::::::::::::::::::::::::::::::::::::
         :: total energy              -20.827826892829 Eh   ::
         :: gradient norm               0.052283737172 Eh/α ::
         :: HOMO-LUMO gap               0.171770064952 eV   ::
         ::.................................................::
         :: SCC energy                -21.082207873912 Eh   ::
         :: -> isotropic ES             0.025524678756 Eh   ::
         :: -> anisotropic ES           0.004604690526 Eh   ::
         :: -> anisotropic XC           0.024662573148 Eh   ::
         :: -> dispersion              -0.005513437033 Eh   ::
         :: repulsion energy            0.254380239869 Eh   ::
         :: add. restraining            0.000000000000 Eh   ::
         :::::::::::::::::::::::::::::::::::::::::::::::::::::

           -------------------------------------------------
          |                Property Printout                |
           -------------------------------------------------

    * Orbital Energies and Occupations

         #    Occupation            Energy/Eh            Energy/eV
      -------------------------------------------------------------
         1        2.0000           -0.7544102             -20.5285
       ...           ...                  ...                  ...
         6        2.0000           -0.6325214             -17.2118
         7        2.0000           -0.6118799             -16.6501
         8        2.0000           -0.6069073             -16.5148
         9        2.0000           -0.5978060             -16.2671
        10        2.0000           -0.5894287             -16.0392
        11        2.0000           -0.5710628             -15.5394
        12        2.0000           -0.5542411             -15.0817
        13        2.0000           -0.5148007             -14.0084
        14        2.0000           -0.5053786             -13.7521
        15        2.0000           -0.4991213             -13.5818
        16        2.0000           -0.4306074             -11.7174
        17        2.0000           -0.4236256             -11.5274
        18        1.9304           -0.3536663              -9.6238 (HOMO)
        19        0.0696           -0.3473539              -9.4520 (LUMO)
        20                         -0.3299095              -8.9773
        21                         -0.2767742              -7.5314
        22                         -0.1817552              -4.9458
        23                          0.0162916               0.4433
        24                          0.0582707               1.5856
        25                          0.1641238               4.4660
        26                          0.1926774               5.2430
        27                          0.3179870               8.6529
        28                          0.4575854              12.4515
        29                          0.7522468              20.4697
        30                          0.8809685              23.9724
      -------------------------------------------------------------
                  HL-Gap            0.0063124 Eh            0.1718 eV
             Fermi-level           -0.3505101 Eh           -9.5379 eV

   #   Z        covCN         q      C6AA      α(0)
   1   7 N      1.787    -0.321    29.152     7.997
   2   6 C      2.813     0.140    24.941     8.182
   3   7 N      1.914     0.126    19.707     6.582
   4   7 N      0.984    -0.109    23.014     6.900
   5   8 O      0.924    -0.250    18.868     5.825
   6   7 N      1.844     0.209    18.386     6.355
   7   6 C      2.831    -0.033    28.822     8.797
   8   1 H      0.860     0.153     1.383     1.843
   9   1 H      0.926     0.086     1.917     2.165

 Mol. C6AA /au·bohr⁶  :       1305.017723
 Mol. C8AA /au·bohr⁸  :      29832.767320
 Mol. α(0) /au        :         54.646107


Wiberg/Mayer (AO) data.
largest (>0.10) Wiberg bond orders for each atom
          total WBO             WBO to atom ...
     1  N   3.080        C    2 1.517    H    8 0.945    N    4 0.150    N    6 0.145    O    5 0.134    N    3 0.125
     2  C   3.927        N    1 1.517    N    3 1.147    C    7 1.033    N    4 0.138
     3  N   3.696        N    4 2.252    C    2 1.147    N    1 0.125
     4  N   2.769        N    3 2.252    N    6 0.173    N    1 0.150    C    2 0.138
     5  O   2.035        N    6 1.509    C    7 0.269    N    1 0.134
     6  N   3.605        C    7 1.649    O    5 1.509    N    4 0.173    N    1 0.145
     7  C   3.948        N    6 1.649    C    2 1.033    H    9 0.903    O    5 0.269
     8  H   0.976        N    1 0.945
     9  H   0.984        C    7 0.903

molecular dipole:
                 x           y           z       tot (Debye)
 q only:       -0.689      -0.132       0.525
   full:       -0.884      -0.137       0.771       3.001
molecular quadrupole (traceless):
                xx          xy          yy          xz          yz          zz
 q only:       -6.624       1.441       3.830       2.776      -1.551       2.794
  q+dip:       -8.837       0.660       5.143       5.618      -2.342       3.693
   full:      -10.043       0.552       6.277       6.328      -2.134       3.766


           -------------------------------------------------
          | TOTAL ENERGY              -20.827826892829 Eh   |
          | GRADIENT NORM               0.052283737172 Eh/α |
          | HOMO-LUMO GAP               0.171770064952 eV   |
           -------------------------------------------------

------------------------------------------------------------------------
 * finished run on 2021/06/02 at 10:00:08.814     
------------------------------------------------------------------------
 total:
 * wall-time:     0 d,  0 h,  0 min,  0.017 sec
 *  cpu-time:     0 d,  0 h,  0 min,  0.016 sec
 * ratio c/w:     0.987 speedup
 SCF:
 * wall-time:     0 d,  0 h,  0 min,  0.009 sec
 *  cpu-time:     0 d,  0 h,  0 min,  0.009 sec
 * ratio c/w:     1.000 speedup

