 Entering Gaussian System, Link 0=/software/kemi/g16/avx2/g16/g16
 Initial command:
 /software/kemi/g16/avx2/g16/l1.exe "/scratch/23935644/Gau-15456.inp" -scrdir="/scratch/23935644/"
 Entering Link 1 = /software/kemi/g16/avx2/g16/l1.exe PID=     15457.
  
 Copyright (c) 1988,1990,1992,1993,1995,1998,2003,2009,2016,
            Gaussian, Inc.  All Rights Reserved.
  
 This is part of the Gaussian(R) 16 program.  It is based on
 the Gaussian(R) 09 system (copyright 2009, Gaussian, Inc.),
 the Gaussian(R) 03 system (copyright 2003, Gaussian, Inc.),
 the Gaussian(R) 98 system (copyright 1998, Gaussian, Inc.),
 the Gaussian(R) 94 system (copyright 1995, Gaussian, Inc.),
 the Gaussian 92(TM) system (copyright 1992, Gaussian, Inc.),
 the Gaussian 90(TM) system (copyright 1990, Gaussian, Inc.),
 the Gaussian 88(TM) system (copyright 1988, Gaussian, Inc.),
 the Gaussian 86(TM) system (copyright 1986, Carnegie Mellon
 University), and the Gaussian 82(TM) system (copyright 1983,
 Carnegie Mellon University). Gaussian is a federally registered
 trademark of Gaussian, Inc.
  
 This software contains proprietary and confidential information,
 including trade secrets, belonging to Gaussian, Inc.
  
 This software is provided under written license and may be
 used, copied, transmitted, or stored only in accord with that
 written license.
  
 The following legend is applicable only to US Government
 contracts under FAR:
  
                    RESTRICTED RIGHTS LEGEND
  
 Use, reproduction and disclosure by the US Government is
 subject to restrictions as set forth in subparagraphs (a)
 and (c) of the Commercial Computer Software - Restricted
 Rights clause in FAR 52.227-19.
  
 Gaussian, Inc.
 340 Quinnipiac St., Bldg. 40, Wallingford CT 06492
  
  
 ---------------------------------------------------------------
 Warning -- This program may not be used in any manner that
 competes with the business of Gaussian, Inc. or will provide
 assistance to any competitor of Gaussian, Inc.  The licensee
 of this program is prohibited from giving any competitor of
 Gaussian, Inc. access to this program.  By using this program,
 the user acknowledges that Gaussian, Inc. is engaged in the
 business of creating and licensing software in the field of
 computational chemistry and represents and warrants to the
 licensee that it is not a competitor of Gaussian, Inc. and that
 it will not use this program in any manner prohibited above.
 ---------------------------------------------------------------
  

 Cite this work as:
 Gaussian 16, Revision A.03,
 M. J. Frisch, G. W. Trucks, H. B. Schlegel, G. E. Scuseria, 
 M. A. Robb, J. R. Cheeseman, G. Scalmani, V. Barone, 
 G. A. Petersson, H. Nakatsuji, X. Li, M. Caricato, A. V. Marenich, 
 J. Bloino, B. G. Janesko, R. Gomperts, B. Mennucci, H. P. Hratchian, 
 J. V. Ortiz, A. F. Izmaylov, J. L. Sonnenberg, D. Williams-Young, 
 F. Ding, F. Lipparini, F. Egidi, J. Goings, B. Peng, A. Petrone, 
 T. Henderson, D. Ranasinghe, V. G. Zakrzewski, J. Gao, N. Rega, 
 G. Zheng, W. Liang, M. Hada, M. Ehara, K. Toyota, R. Fukuda, 
 J. Hasegawa, M. Ishida, T. Nakajima, Y. Honda, O. Kitao, H. Nakai, 
 T. Vreven, K. Throssell, J. A. Montgomery, Jr., J. E. Peralta, 
 F. Ogliaro, M. J. Bearpark, J. J. Heyd, E. N. Brothers, K. N. Kudin, 
 V. N. Staroverov, T. A. Keith, R. Kobayashi, J. Normand, 
 K. Raghavachari, A. P. Rendell, J. C. Burant, S. S. Iyengar, 
 J. Tomasi, M. Cossi, J. M. Millam, M. Klene, C. Adamo, R. Cammi, 
 J. W. Ochterski, R. L. Martin, K. Morokuma, O. Farkas, 
 J. B. Foresman, and D. J. Fox, Gaussian, Inc., Wallingford CT, 2016.
 
 ******************************************
 Gaussian 16:  ES64L-G16RevA.03 25-Dec-2016
                22-Jun-2021 
 ******************************************
 %nprocshared=4
 Will use up to    4 processors via shared memory.
 %mem=8GB
 ------------------
 # UwB97XD/Def2TZVP
 ------------------
 1/38=1,172=1/1;
 2/12=2,17=6,18=5,40=1/2;
 3/5=44,7=101,11=2,25=1,30=1,74=-58,116=2/1,2,3;
 4//1;
 5/5=2,38=5/2;
 6/7=2,8=2,9=2,10=2,28=1/1;
 99/5=1,9=1/99;
 ---------------
 something title
 ---------------
 Symbolic Z-matrix:
 Charge =  0 Multiplicity = 1
 N                    -0.5263   -0.14323  -1.27174 
 C                    -0.43477  -0.84007  -0.19263 
 N                    -1.53662  -1.14272   0.49834 
 N                    -2.632    -1.31883   0.75432 
 O                     3.05131  -1.43766  -0.17738 
 N                     1.86529  -1.28555  -0.34747 
 C                     0.82931  -1.23522   0.39195 
 H                    -1.45033   0.15778  -1.56035 
 H                     0.81018  -1.56647   1.42728 
 
                          Input orientation:                          
 ---------------------------------------------------------------------
 Center     Atomic      Atomic             Coordinates (Angstroms)
 Number     Number       Type             X           Y           Z
 ---------------------------------------------------------------------
      1          7           0       -0.526296   -0.143234   -1.271742
      2          6           0       -0.434772   -0.840067   -0.192625
      3          7           0       -1.536616   -1.142718    0.498339
      4          7           0       -2.632003   -1.318826    0.754321
      5          8           0        3.051313   -1.437655   -0.177383
      6          7           0        1.865289   -1.285554   -0.347471
      7          6           0        0.829310   -1.235224    0.391950
      8          1           0       -1.450326    0.157779   -1.560347
      9          1           0        0.810175   -1.566465    1.427278
 ---------------------------------------------------------------------
                    Distance matrix (angstroms):
                    1          2          3          4          5
     1  N    0.000000
     2  C    1.287807   0.000000
     3  N    2.270000   1.335324   0.000000
     4  N    3.149754   2.440029   1.138602   0.000000
     5  O    3.958842   3.536967   4.646793   5.760406   0.000000
     6  N    2.806929   2.347917   3.508383   4.630409   1.207774
     7  C    2.407900   1.447681   2.370123   3.481234   2.302697
     8  H    1.013772   1.974262   2.436581   2.989048   4.972198
     9  H    3.331133   2.168325   2.559281   3.516075   2.759389
                    6          7          8          9
     6  N    0.000000
     7  C    1.273785   0.000000
     8  H    3.814129   3.308876   0.000000
     9  H    2.083725   1.087194   4.124171   0.000000
 Stoichiometry    C2H2N4O
 Framework group  C1[X(C2H2N4O)]
 Deg. of freedom    21
 Full point group                 C1      NOp   1
 Largest Abelian subgroup         C1      NOp   1
 Largest concise Abelian subgroup C1      NOp   1
                         Standard orientation:                         
 ---------------------------------------------------------------------
 Center     Atomic      Atomic             Coordinates (Angstroms)
 Number     Number       Type             X           Y           Z
 ---------------------------------------------------------------------
      1          7           0       -0.585283    1.542550    0.044691
      2          6           0       -0.557976    0.255040    0.040372
      3          7           0       -1.701764   -0.433754    0.020332
      4          7           0       -2.802241   -0.688611   -0.122537
      5          8           0        2.941184   -0.254496   -0.039532
      6          7           0        1.771984    0.030241   -0.142563
      7          6           0        0.662450   -0.513187    0.167515
      8          1           0       -1.493026    1.993824    0.035299
      9          1           0        0.557835   -1.561969    0.434168
 ---------------------------------------------------------------------
 Rotational constants (GHZ):           9.1726026           1.4425425           1.2532593
 Standard basis: def2TZVP (5D, 7F)
 There are   264 symmetry adapted cartesian basis functions of A   symmetry.
 There are   229 symmetry adapted basis functions of A   symmetry.
   229 basis functions,   373 primitive gaussians,   264 cartesian basis functions
    25 alpha electrons       25 beta electrons
       nuclear repulsion energy       256.7305683958 Hartrees.
 NAtoms=    9 NActive=    9 NUniq=    9 SFac= 1.00D+00 NAtFMM=   60 NAOKFM=F Big=F
 Integral buffers will be    131072 words long.
 Raffenetti 2 integral format.
 Two-electron integral symmetry is turned on.
 Nuclear repulsion after empirical dispersion term =      256.7280475921 Hartrees.
 One-electron integrals computed using PRISM.
   1 Symmetry operations used in ECPInt.
 ECPInt:  NShTT=    3655 NPrTT=   11788 LenC2=    3522 LenP2D=    9053.
 LDataN:  DoStor=T MaxTD1= 6 Len=  172
 NBasis=   229 RedAO= T EigKep=  1.87D-04  NBF=   229
 NBsUse=   229 1.00D-06 EigRej= -1.00D+00 NBFU=   229
 ExpMin= 9.52D-02 ExpMax= 2.70D+04 ExpMxC= 9.22D+02 IAcc=3 IRadAn=         5 AccDes= 0.00D+00
 Harris functional with IExCor= 4639 and IRadAn=       5 diagonalized for initial guess.
 HarFok:  IExCor= 4639 AccDes= 0.00D+00 IRadAn=         5 IDoV= 1 UseB2=F ITyADJ=14
 ICtDFT=  3500011 ScaDFX=  1.000000  1.000000  1.000000  1.000000
 FoFCou: FMM=F IPFlag=           0 FMFlag=      100000 FMFlg1=           0
         NFxFlg=           0 DoJE=T BraDBF=F KetDBF=T FulRan=T
         wScrn=  0.000000 ICntrl=       500 IOpCl=  0 I1Cent=   200000004 NGrid=           0
         NMat0=    1 NMatS0=      1 NMatT0=    0 NMatD0=    1 NMtDS0=    0 NMtDT0=    0
 Petite list used in FoFCou.
 Initial guess <Sx>= 0.0000 <Sy>= 0.0000 <Sz>= 0.0000 <S**2>=-0.0000 S=-0.0000
 Requested convergence on RMS density matrix=1.00D-08 within 128 cycles.
 Requested convergence on MAX density matrix=1.00D-06.
 Requested convergence on             energy=1.00D-06.
 No special actions if energy rises.
 Integral accuracy reduced to 1.0D-05 until final iterations.
 EnCoef did     3 forward-backward iterations
 Initial convergence to 1.0D-05 achieved.  Increase integral accuracy.
 SCF Done:  E(UwB97XD) =  -371.411076164     A.U. after   30 cycles
            NFock= 30  Conv=0.63D-08     -V/T= 2.0037
 <Sx>= 0.0000 <Sy>= 0.0000 <Sz>= 0.0000 <S**2>=-0.0000 S=-0.0000
 <L.S>=  0.00000000000    
 Annihilation of the first spin contaminant:
 S**2 before annihilation    -0.0000,   after     0.0000

 **********************************************************************

            Population analysis using the SCF density.

 **********************************************************************

 Orbital symmetries:
 Alpha Orbitals:
       Occupied  (A) (A) (A) (A) (A) (A) (A) (A) (A) (A) (A) (A)
                 (A) (A) (A) (A) (A) (A) (A) (A) (A) (A) (A) (A)
                 (A)
       Virtual   (A) (A) (A) (A) (A) (A) (A) (A) (A) (A) (A) (A)
                 (A) (A) (A) (A) (A) (A) (A) (A) (A) (A) (A) (A)
                 (A) (A) (A) (A) (A) (A) (A) (A) (A) (A) (A) (A)
                 (A) (A) (A) (A) (A) (A) (A) (A) (A) (A) (A) (A)
                 (A) (A) (A) (A) (A) (A) (A) (A) (A) (A) (A) (A)
                 (A) (A) (A) (A) (A) (A) (A) (A) (A) (A) (A) (A)
                 (A) (A) (A) (A) (A) (A) (A) (A) (A) (A) (A) (A)
                 (A) (A) (A) (A) (A) (A) (A) (A) (A) (A) (A) (A)
                 (A) (A) (A) (A) (A) (A) (A) (A) (A) (A) (A) (A)
                 (A) (A) (A) (A) (A) (A) (A) (A) (A) (A) (A) (A)
                 (A) (A) (A) (A) (A) (A) (A) (A) (A) (A) (A) (A)
                 (A) (A) (A) (A) (A) (A) (A) (A) (A) (A) (A) (A)
                 (A) (A) (A) (A) (A) (A) (A) (A) (A) (A) (A) (A)
                 (A) (A) (A) (A) (A) (A) (A) (A) (A) (A) (A) (A)
                 (A) (A) (A) (A) (A) (A) (A) (A) (A) (A) (A) (A)
                 (A) (A) (A) (A) (A) (A) (A) (A) (A) (A) (A) (A)
                 (A) (A) (A) (A) (A) (A) (A) (A) (A) (A) (A) (A)
 Beta  Orbitals:
       Occupied  (A) (A) (A) (A) (A) (A) (A) (A) (A) (A) (A) (A)
                 (A) (A) (A) (A) (A) (A) (A) (A) (A) (A) (A) (A)
                 (A)
       Virtual   (A) (A) (A) (A) (A) (A) (A) (A) (A) (A) (A) (A)
                 (A) (A) (A) (A) (A) (A) (A) (A) (A) (A) (A) (A)
                 (A) (A) (A) (A) (A) (A) (A) (A) (A) (A) (A) (A)
                 (A) (A) (A) (A) (A) (A) (A) (A) (A) (A) (A) (A)
                 (A) (A) (A) (A) (A) (A) (A) (A) (A) (A) (A) (A)
                 (A) (A) (A) (A) (A) (A) (A) (A) (A) (A) (A) (A)
                 (A) (A) (A) (A) (A) (A) (A) (A) (A) (A) (A) (A)
                 (A) (A) (A) (A) (A) (A) (A) (A) (A) (A) (A) (A)
                 (A) (A) (A) (A) (A) (A) (A) (A) (A) (A) (A) (A)
                 (A) (A) (A) (A) (A) (A) (A) (A) (A) (A) (A) (A)
                 (A) (A) (A) (A) (A) (A) (A) (A) (A) (A) (A) (A)
                 (A) (A) (A) (A) (A) (A) (A) (A) (A) (A) (A) (A)
                 (A) (A) (A) (A) (A) (A) (A) (A) (A) (A) (A) (A)
                 (A) (A) (A) (A) (A) (A) (A) (A) (A) (A) (A) (A)
                 (A) (A) (A) (A) (A) (A) (A) (A) (A) (A) (A) (A)
                 (A) (A) (A) (A) (A) (A) (A) (A) (A) (A) (A) (A)
                 (A) (A) (A) (A) (A) (A) (A) (A) (A) (A) (A) (A)
 The electronic state is 1-A.
 Alpha  occ. eigenvalues --  -19.27581 -14.65880 -14.62260 -14.53033 -14.44953
 Alpha  occ. eigenvalues --  -10.42755 -10.33525  -1.30448  -1.23706  -1.08523
 Alpha  occ. eigenvalues --   -0.95535  -0.93849  -0.74128  -0.67230  -0.66036
 Alpha  occ. eigenvalues --   -0.64624  -0.62869  -0.58673  -0.57406  -0.54674
 Alpha  occ. eigenvalues --   -0.47723  -0.46291  -0.39778  -0.32403  -0.25543
 Alpha virt. eigenvalues --   -0.10020  -0.06531   0.03685   0.10076   0.13874
 Alpha virt. eigenvalues --    0.14923   0.17808   0.19818   0.23639   0.27030
 Alpha virt. eigenvalues --    0.29002   0.30121   0.32277   0.33214   0.33466
 Alpha virt. eigenvalues --    0.35908   0.37919   0.39471   0.41309   0.44555
 Alpha virt. eigenvalues --    0.45611   0.46604   0.48276   0.49503   0.51129
 Alpha virt. eigenvalues --    0.53254   0.53887   0.54627   0.55202   0.57288
 Alpha virt. eigenvalues --    0.58433   0.60445   0.62893   0.63975   0.66067
 Alpha virt. eigenvalues --    0.68262   0.70769   0.71667   0.77298   0.79311
 Alpha virt. eigenvalues --    0.81148   0.81347   0.83848   0.89028   0.91290
 Alpha virt. eigenvalues --    0.95868   1.00575   1.03216   1.05663   1.10868
 Alpha virt. eigenvalues --    1.12241   1.14155   1.19726   1.27669   1.29385
 Alpha virt. eigenvalues --    1.30338   1.30613   1.33090   1.40143   1.42952
 Alpha virt. eigenvalues --    1.46167   1.46685   1.49482   1.51227   1.53011
 Alpha virt. eigenvalues --    1.55197   1.58301   1.61112   1.65841   1.66363
 Alpha virt. eigenvalues --    1.68139   1.75275   1.76752   1.78001   1.80146
 Alpha virt. eigenvalues --    1.82173   1.88605   1.90013   1.92073   1.96683
 Alpha virt. eigenvalues --    1.99642   2.04892   2.06127   2.10911   2.12828
 Alpha virt. eigenvalues --    2.15260   2.19516   2.23604   2.24763   2.25197
 Alpha virt. eigenvalues --    2.27471   2.33849   2.35329   2.38427   2.42492
 Alpha virt. eigenvalues --    2.45881   2.51824   2.55839   2.61044   2.63056
 Alpha virt. eigenvalues --    2.64084   2.71028   2.74983   2.81004   2.86981
 Alpha virt. eigenvalues --    2.89528   2.93738   2.95763   2.96621   3.02162
 Alpha virt. eigenvalues --    3.04538   3.06237   3.09959   3.13792   3.14999
 Alpha virt. eigenvalues --    3.20057   3.24165   3.26491   3.27939   3.37184
 Alpha virt. eigenvalues --    3.37730   3.40948   3.44921   3.49181   3.54063
 Alpha virt. eigenvalues --    3.57040   3.61384   3.63436   3.68497   3.74340
 Alpha virt. eigenvalues --    3.74864   3.77526   3.78068   3.82645   3.86328
 Alpha virt. eigenvalues --    3.89038   3.97056   4.05449   4.06435   4.08590
 Alpha virt. eigenvalues --    4.13588   4.18792   4.20075   4.28554   4.30383
 Alpha virt. eigenvalues --    4.36063   4.36716   4.41756   4.45004   4.48784
 Alpha virt. eigenvalues --    4.50665   4.56110   4.58380   4.63239   4.69618
 Alpha virt. eigenvalues --    4.71709   4.72948   4.76209   4.78079   4.80215
 Alpha virt. eigenvalues --    4.88082   4.91580   4.93150   4.94476   4.98287
 Alpha virt. eigenvalues --    5.03832   5.05716   5.07872   5.09511   5.10496
 Alpha virt. eigenvalues --    5.14451   5.18690   5.22863   5.27061   5.28530
 Alpha virt. eigenvalues --    5.35795   5.40463   5.46179   5.57201   5.60700
 Alpha virt. eigenvalues --    5.68537   5.78600   5.79575   5.85716   5.99976
 Alpha virt. eigenvalues --    6.37215   6.37646   6.38668   6.50443   6.55090
 Alpha virt. eigenvalues --    6.61168   6.80099   6.90801   7.00470   7.14641
 Alpha virt. eigenvalues --    7.29264   7.46012  22.88480  23.35060  31.70577
 Alpha virt. eigenvalues --   32.08900  32.47417  32.94890  44.10302
  Beta  occ. eigenvalues --  -19.27581 -14.65880 -14.62260 -14.53033 -14.44953
  Beta  occ. eigenvalues --  -10.42755 -10.33525  -1.30448  -1.23706  -1.08523
  Beta  occ. eigenvalues --   -0.95535  -0.93849  -0.74128  -0.67230  -0.66036
  Beta  occ. eigenvalues --   -0.64624  -0.62869  -0.58673  -0.57406  -0.54674
  Beta  occ. eigenvalues --   -0.47723  -0.46291  -0.39778  -0.32403  -0.25543
  Beta virt. eigenvalues --   -0.10020  -0.06531   0.03685   0.10076   0.13874
  Beta virt. eigenvalues --    0.14923   0.17808   0.19818   0.23639   0.27030
  Beta virt. eigenvalues --    0.29002   0.30121   0.32277   0.33214   0.33466
  Beta virt. eigenvalues --    0.35908   0.37919   0.39471   0.41309   0.44555
  Beta virt. eigenvalues --    0.45611   0.46604   0.48276   0.49503   0.51129
  Beta virt. eigenvalues --    0.53254   0.53887   0.54627   0.55202   0.57288
  Beta virt. eigenvalues --    0.58433   0.60445   0.62893   0.63975   0.66067
  Beta virt. eigenvalues --    0.68262   0.70769   0.71667   0.77298   0.79311
  Beta virt. eigenvalues --    0.81148   0.81347   0.83848   0.89028   0.91290
  Beta virt. eigenvalues --    0.95868   1.00575   1.03216   1.05663   1.10868
  Beta virt. eigenvalues --    1.12241   1.14155   1.19726   1.27669   1.29385
  Beta virt. eigenvalues --    1.30338   1.30613   1.33090   1.40143   1.42952
  Beta virt. eigenvalues --    1.46167   1.46685   1.49482   1.51227   1.53011
  Beta virt. eigenvalues --    1.55197   1.58301   1.61112   1.65841   1.66363
  Beta virt. eigenvalues --    1.68139   1.75275   1.76752   1.78001   1.80146
  Beta virt. eigenvalues --    1.82173   1.88605   1.90013   1.92073   1.96683
  Beta virt. eigenvalues --    1.99642   2.04892   2.06127   2.10911   2.12828
  Beta virt. eigenvalues --    2.15260   2.19516   2.23604   2.24763   2.25197
  Beta virt. eigenvalues --    2.27471   2.33849   2.35329   2.38427   2.42492
  Beta virt. eigenvalues --    2.45881   2.51824   2.55839   2.61044   2.63056
  Beta virt. eigenvalues --    2.64084   2.71028   2.74983   2.81004   2.86981
  Beta virt. eigenvalues --    2.89528   2.93738   2.95763   2.96621   3.02162
  Beta virt. eigenvalues --    3.04538   3.06237   3.09959   3.13792   3.14999
  Beta virt. eigenvalues --    3.20057   3.24165   3.26491   3.27939   3.37184
  Beta virt. eigenvalues --    3.37730   3.40948   3.44921   3.49181   3.54063
  Beta virt. eigenvalues --    3.57040   3.61384   3.63436   3.68497   3.74340
  Beta virt. eigenvalues --    3.74864   3.77526   3.78068   3.82645   3.86328
  Beta virt. eigenvalues --    3.89038   3.97056   4.05449   4.06435   4.08590
  Beta virt. eigenvalues --    4.13588   4.18792   4.20075   4.28554   4.30383
  Beta virt. eigenvalues --    4.36063   4.36716   4.41756   4.45004   4.48784
  Beta virt. eigenvalues --    4.50665   4.56110   4.58380   4.63239   4.69618
  Beta virt. eigenvalues --    4.71709   4.72948   4.76209   4.78079   4.80215
  Beta virt. eigenvalues --    4.88082   4.91580   4.93150   4.94476   4.98287
  Beta virt. eigenvalues --    5.03832   5.05716   5.07872   5.09511   5.10496
  Beta virt. eigenvalues --    5.14451   5.18690   5.22863   5.27061   5.28530
  Beta virt. eigenvalues --    5.35795   5.40463   5.46179   5.57201   5.60700
  Beta virt. eigenvalues --    5.68537   5.78600   5.79575   5.85716   5.99976
  Beta virt. eigenvalues --    6.37215   6.37646   6.38668   6.50443   6.55090
  Beta virt. eigenvalues --    6.61168   6.80099   6.90801   7.00470   7.14641
  Beta virt. eigenvalues --    7.29264   7.46012  22.88480  23.35060  31.70577
  Beta virt. eigenvalues --   32.08900  32.47417  32.94890  44.10302
          Condensed to atoms (all electrons):
               1          2          3          4          5          6
     1  N    6.513775   0.674384  -0.075451  -0.002493  -0.000848   0.005069
     2  C    0.674384   4.748094   0.325099  -0.043904   0.004639  -0.074266
     3  N   -0.075451   0.325099   6.240178   0.424173  -0.000085   0.001335
     4  N   -0.002493  -0.043904   0.424173   6.628391   0.000008   0.000327
     5  O   -0.000848   0.004639  -0.000085   0.000008   8.155255   0.221200
     6  N    0.005069  -0.074266   0.001335   0.000327   0.221200   6.194055
     7  C   -0.099802   0.293005  -0.060305   0.004066  -0.070918   0.535533
     8  H    0.343782  -0.060064  -0.010251   0.001099   0.000014   0.000060
     9  H   -0.000443  -0.120465   0.015754   0.003453   0.008775  -0.030664
               7          8          9
     1  N   -0.099802   0.343782  -0.000443
     2  C    0.293005  -0.060064  -0.120465
     3  N   -0.060305  -0.010251   0.015754
     4  N    0.004066   0.001099   0.003453
     5  O   -0.070918   0.000014   0.008775
     6  N    0.535533   0.000060  -0.030664
     7  C    5.134802   0.015814   0.425051
     8  H    0.015814   0.489535  -0.000259
     9  H    0.425051  -0.000259   0.591077
          Atomic-Atomic Spin Densities.
               1          2          3          4          5          6
     1  N    0.000000  -0.000000  -0.000000   0.000000  -0.000000   0.000000
     2  C   -0.000000   0.000000   0.000000  -0.000000   0.000000   0.000000
     3  N   -0.000000   0.000000   0.000000  -0.000000   0.000000  -0.000000
     4  N    0.000000  -0.000000  -0.000000   0.000000  -0.000000   0.000000
     5  O   -0.000000   0.000000   0.000000  -0.000000  -0.000000   0.000000
     6  N    0.000000   0.000000  -0.000000   0.000000   0.000000  -0.000000
     7  C   -0.000000  -0.000000   0.000000   0.000000   0.000000  -0.000000
     8  H    0.000000   0.000000  -0.000000   0.000000   0.000000  -0.000000
     9  H   -0.000000   0.000000   0.000000  -0.000000  -0.000000   0.000000
               7          8          9
     1  N   -0.000000   0.000000  -0.000000
     2  C   -0.000000   0.000000   0.000000
     3  N    0.000000  -0.000000   0.000000
     4  N    0.000000   0.000000  -0.000000
     5  O    0.000000   0.000000  -0.000000
     6  N   -0.000000  -0.000000   0.000000
     7  C   -0.000000  -0.000000   0.000000
     8  H   -0.000000  -0.000000  -0.000000
     9  H    0.000000  -0.000000  -0.000000
 Mulliken charges and spin densities:
               1          2
     1  N   -0.357971   0.000000
     2  C    0.253478   0.000000
     3  N    0.139553   0.000000
     4  N   -0.015120   0.000000
     5  O   -0.318040  -0.000000
     6  N    0.147353  -0.000000
     7  C   -0.177246  -0.000000
     8  H    0.220271  -0.000000
     9  H    0.107722  -0.000000
 Sum of Mulliken charges =  -0.00000   0.00000
 Mulliken charges and spin densities with hydrogens summed into heavy atoms:
               1          2
     1  N   -0.137700   0.000000
     2  C    0.253478   0.000000
     3  N    0.139553   0.000000
     4  N   -0.015120   0.000000
     5  O   -0.318040  -0.000000
     6  N    0.147353  -0.000000
     7  C   -0.069524  -0.000000
 Electronic spatial extent (au):  <R**2>=            829.0728
 Charge=             -0.0000 electrons
 Dipole moment (field-independent basis, Debye):
    X=             -6.0692    Y=             -1.6288    Z=              0.4306  Tot=              6.2987
 Quadrupole moment (field-independent basis, Debye-Ang):
   XX=            -44.6546   YY=            -38.4530   ZZ=            -39.1515
   XY=             -2.2035   XZ=              0.4795   YZ=              0.0446
 Traceless Quadrupole moment (field-independent basis, Debye-Ang):
   XX=             -3.9016   YY=              2.3001   ZZ=              1.6015
   XY=             -2.2035   XZ=              0.4795   YZ=              0.0446
 Octapole moment (field-independent basis, Debye-Ang**2):
  XXX=            -33.9007  YYY=             -4.7482  ZZZ=             -0.6808  XYY=             -5.7993
  XXY=              8.4213  XXZ=              1.5431  XZZ=              0.2152  YZZ=             -1.1619
  YYZ=              0.3712  XYZ=              1.1336
 Hexadecapole moment (field-independent basis, Debye-Ang**3):
 XXXX=           -910.6775 YYYY=           -171.3299 ZZZZ=            -40.2599 XXXY=             -8.9223
 XXXZ=              0.3042 YYYX=            -14.4053 YYYZ=             -0.8805 ZZZX=             -0.2901
 ZZZY=              0.7932 XXYY=           -151.3109 XXZZ=           -139.1488 YYZZ=            -37.7290
 XXYZ=              2.4374 YYXZ=             -0.1602 ZZXY=              0.0857
 N-N= 2.567280475921D+02 E-N=-1.382098991216D+03  KE= 3.700409993149D+02
                          Isotropic Fermi Contact Couplings
        Atom                 a.u.       MegaHertz       Gauss      10(-4) cm-1
     1  N(14)              0.00000       0.00000       0.00000       0.00000
     2  C(13)             -0.00000      -0.00000      -0.00000      -0.00000
     3  N(14)             -0.00000      -0.00000      -0.00000      -0.00000
     4  N(14)              0.00000       0.00000       0.00000       0.00000
     5  O(17)             -0.00000       0.00000       0.00000       0.00000
     6  N(14)             -0.00000      -0.00000      -0.00000      -0.00000
     7  C(13)             -0.00000      -0.00000      -0.00000      -0.00000
     8  H(1)              -0.00000      -0.00000      -0.00000      -0.00000
     9  H(1)              -0.00000      -0.00000      -0.00000      -0.00000
 --------------------------------------------------------
       Center         ----  Spin Dipole Couplings  ----
                      3XX-RR        3YY-RR        3ZZ-RR
 --------------------------------------------------------
     1   Atom       -0.000000     -0.000000      0.000000
     2   Atom       -0.000000      0.000000      0.000000
     3   Atom       -0.000000     -0.000000      0.000000
     4   Atom       -0.000000     -0.000000      0.000000
     5   Atom        0.000000     -0.000000      0.000000
     6   Atom        0.000000     -0.000000      0.000000
     7   Atom        0.000000      0.000000     -0.000000
     8   Atom        0.000000     -0.000000     -0.000000
     9   Atom        0.000000     -0.000000      0.000000
 --------------------------------------------------------
                        XY            XZ            YZ
 --------------------------------------------------------
     1   Atom        0.000000      0.000000      0.000000
     2   Atom        0.000000      0.000000      0.000000
     3   Atom        0.000000     -0.000000      0.000000
     4   Atom        0.000000     -0.000000     -0.000000
     5   Atom       -0.000000     -0.000000      0.000000
     6   Atom        0.000000      0.000000      0.000000
     7   Atom       -0.000000      0.000000      0.000000
     8   Atom       -0.000000      0.000000      0.000000
     9   Atom       -0.000000      0.000000      0.000000
 --------------------------------------------------------


 ---------------------------------------------------------------------------------
              Anisotropic Spin Dipole Couplings in Principal Axis System
 ---------------------------------------------------------------------------------

       Atom             a.u.   MegaHertz   Gauss  10(-4) cm-1        Axes

              Baa    -0.0000    -0.000    -0.000    -0.000  0.9922 -0.1245 -0.0021
     1 N(14)  Bbb    -0.0000    -0.000    -0.000    -0.000  0.1244  0.9920 -0.0226
              Bcc     0.0000     0.000     0.000     0.000  0.0049  0.0222  0.9997
 
              Baa    -0.0000    -0.000    -0.000    -0.000  0.9332 -0.3507 -0.0782
     2 C(13)  Bbb    -0.0000    -0.000    -0.000    -0.000  0.2749  0.8370 -0.4732
              Bcc     0.0000     0.000     0.000     0.000  0.2314  0.4201  0.8775
 
              Baa    -0.0000    -0.000    -0.000    -0.000 -0.3312  0.9427 -0.0403
     3 N(14)  Bbb    -0.0000    -0.000    -0.000    -0.000  0.9418  0.3329  0.0472
              Bcc     0.0000     0.000     0.000     0.000 -0.0579  0.0224  0.9981
 
              Baa    -0.0000    -0.000    -0.000    -0.000  0.9949 -0.0278  0.0975
     4 N(14)  Bbb    -0.0000    -0.000    -0.000    -0.000  0.0259  0.9995  0.0207
              Bcc     0.0000     0.000     0.000     0.000 -0.0980 -0.0181  0.9950
 
              Baa    -0.0000     0.000     0.000     0.000  0.0535  0.9983 -0.0223
     5 O(17)  Bbb     0.0000    -0.000    -0.000    -0.000  0.9959 -0.0518  0.0739
              Bcc     0.0000    -0.000    -0.000    -0.000 -0.0727  0.0261  0.9970
 
              Baa    -0.0000    -0.000    -0.000    -0.000 -0.0384  0.9786 -0.2022
     6 N(14)  Bbb     0.0000     0.000     0.000     0.000  0.9829  0.0005 -0.1844
              Bcc     0.0000     0.000     0.000     0.000  0.1803  0.2058  0.9618
 
              Baa    -0.0000    -0.000    -0.000    -0.000 -0.5374 -0.1220  0.8345
     7 C(13)  Bbb     0.0000     0.000     0.000     0.000  0.6554  0.5623  0.5043
              Bcc     0.0000     0.000     0.000     0.000 -0.5307  0.8179 -0.2222
 
              Baa    -0.0000    -0.000    -0.000    -0.000  0.4582  0.8874 -0.0502
     8 H(1)   Bbb    -0.0000    -0.000    -0.000    -0.000 -0.0180  0.0657  0.9977
              Bcc     0.0000     0.000     0.000     0.000  0.8887 -0.4562  0.0461
 
              Baa    -0.0000    -0.000    -0.000    -0.000  0.4057  0.9017 -0.1495
     9 H(1)   Bbb     0.0000     0.000     0.000     0.000 -0.3268  0.2959  0.8976
              Bcc     0.0000     0.000     0.000     0.000  0.8536 -0.3152  0.4147
 

 ---------------------------------------------------------------------------------

 1\1\GINC-NODE305\SP\UwB97XD\def2TZVP\C2H2N4O1\MHARRIS\22-Jun-2021\0\\#
  UwB97XD/Def2TZVP\\something title\\0,1\N,0,-0.526296,-0.143234,-1.271
 742\C,0,-0.434772,-0.840067,-0.192625\N,0,-1.536616,-1.142718,0.498339
 \N,0,-2.632003,-1.318826,0.754321\O,0,3.051313,-1.437655,-0.177383\N,0
 ,1.865289,-1.285554,-0.347471\C,0,0.82931,-1.235224,0.39195\H,0,-1.450
 326,0.157779,-1.560347\H,0,0.810175,-1.566465,1.427278\\Version=ES64L-
 G16RevA.03\State=1-A\HF=-371.4110762\S2=0.\S2-1=0.\S2A=0.\RMSD=6.289e-
 09\Dipole=-2.3153603,-0.0263256,0.8828314\Quadrupole=-2.5836392,1.4333
 856,1.1502537,-0.299693,1.9904769,-0.3343143\PG=C01 [X(C2H2N4O1)]\\@


 ADVERTISING--  HE WHO HAS SOMETHING TO SELL AND GOES AND WHISPERS
                IN A WELL, IS NOT SO APT TO GET THE DOLLARS AS HE
                WHO CLIMBS A TREE AND HOLLERS.

                   -- FROM THE BACK OF A SUGAR PACKET
 Job cpu time:       0 days  0 hours 26 minutes 36.8 seconds.
 Elapsed time:       0 days  0 hours  6 minutes 39.6 seconds.
 File lengths (MBytes):  RWF=     54 Int=      0 D2E=      0 Chk=      5 Scr=      1
 Normal termination of Gaussian 16 at Tue Jun 22 17:29:04 2021.
