 Entering Gaussian System, Link 0=/software/kemi/g16/avx2/g16/g16
 Initial command:
 /software/kemi/g16/avx2/g16/l1.exe "/scratch/23935644/Gau-25579.inp" -scrdir="/scratch/23935644/"
 Entering Link 1 = /software/kemi/g16/avx2/g16/l1.exe PID=     25580.
  
 Copyright (c) 1988,1990,1992,1993,1995,1998,2003,2009,2016,
            Gaussian, Inc.  All Rights Reserved.
  
 This is part of the Gaussian(R) 16 program.  It is based on
 the Gaussian(R) 09 system (copyright 2009, Gaussian, Inc.),
 the Gaussian(R) 03 system (copyright 2003, Gaussian, Inc.),
 the Gaussian(R) 98 system (copyright 1998, Gaussian, Inc.),
 the Gaussian(R) 94 system (copyright 1995, Gaussian, Inc.),
 the Gaussian 92(TM) system (copyright 1992, Gaussian, Inc.),
 the Gaussian 90(TM) system (copyright 1990, Gaussian, Inc.),
 the Gaussian 88(TM) system (copyright 1988, Gaussian, Inc.),
 the Gaussian 86(TM) system (copyright 1986, Carnegie Mellon
 University), and the Gaussian 82(TM) system (copyright 1983,
 Carnegie Mellon University). Gaussian is a federally registered
 trademark of Gaussian, Inc.
  
 This software contains proprietary and confidential information,
 including trade secrets, belonging to Gaussian, Inc.
  
 This software is provided under written license and may be
 used, copied, transmitted, or stored only in accord with that
 written license.
  
 The following legend is applicable only to US Government
 contracts under FAR:
  
                    RESTRICTED RIGHTS LEGEND
  
 Use, reproduction and disclosure by the US Government is
 subject to restrictions as set forth in subparagraphs (a)
 and (c) of the Commercial Computer Software - Restricted
 Rights clause in FAR 52.227-19.
  
 Gaussian, Inc.
 340 Quinnipiac St., Bldg. 40, Wallingford CT 06492
  
  
 ---------------------------------------------------------------
 Warning -- This program may not be used in any manner that
 competes with the business of Gaussian, Inc. or will provide
 assistance to any competitor of Gaussian, Inc.  The licensee
 of this program is prohibited from giving any competitor of
 Gaussian, Inc. access to this program.  By using this program,
 the user acknowledges that Gaussian, Inc. is engaged in the
 business of creating and licensing software in the field of
 computational chemistry and represents and warrants to the
 licensee that it is not a competitor of Gaussian, Inc. and that
 it will not use this program in any manner prohibited above.
 ---------------------------------------------------------------
  

 Cite this work as:
 Gaussian 16, Revision A.03,
 M. J. Frisch, G. W. Trucks, H. B. Schlegel, G. E. Scuseria, 
 M. A. Robb, J. R. Cheeseman, G. Scalmani, V. Barone, 
 G. A. Petersson, H. Nakatsuji, X. Li, M. Caricato, A. V. Marenich, 
 J. Bloino, B. G. Janesko, R. Gomperts, B. Mennucci, H. P. Hratchian, 
 J. V. Ortiz, A. F. Izmaylov, J. L. Sonnenberg, D. Williams-Young, 
 F. Ding, F. Lipparini, F. Egidi, J. Goings, B. Peng, A. Petrone, 
 T. Henderson, D. Ranasinghe, V. G. Zakrzewski, J. Gao, N. Rega, 
 G. Zheng, W. Liang, M. Hada, M. Ehara, K. Toyota, R. Fukuda, 
 J. Hasegawa, M. Ishida, T. Nakajima, Y. Honda, O. Kitao, H. Nakai, 
 T. Vreven, K. Throssell, J. A. Montgomery, Jr., J. E. Peralta, 
 F. Ogliaro, M. J. Bearpark, J. J. Heyd, E. N. Brothers, K. N. Kudin, 
 V. N. Staroverov, T. A. Keith, R. Kobayashi, J. Normand, 
 K. Raghavachari, A. P. Rendell, J. C. Burant, S. S. Iyengar, 
 J. Tomasi, M. Cossi, J. M. Millam, M. Klene, C. Adamo, R. Cammi, 
 J. W. Ochterski, R. L. Martin, K. Morokuma, O. Farkas, 
 J. B. Foresman, and D. J. Fox, Gaussian, Inc., Wallingford CT, 2016.
 
 ******************************************
 Gaussian 16:  ES64L-G16RevA.03 25-Dec-2016
                23-Jun-2021 
 ******************************************
 %nprocshared=4
 Will use up to    4 processors via shared memory.
 %mem=8GB
 ---------------------
 #opt UwB97XD/Def2TZVP
 ---------------------
 1/18=20,19=15,26=3,38=1/1,3;
 2/9=110,12=2,17=6,18=5,40=1/2;
 3/5=44,7=101,11=2,25=1,30=1,71=1,74=-58,116=2/1,2,3;
 4//1;
 5/5=2,38=5/2;
 6/7=2,8=2,9=2,10=2,28=1/1;
 7//1,2,3,16;
 1/18=20,19=15,26=3/3(2);
 2/9=110/2;
 99//99;
 2/9=110/2;
 3/5=44,7=101,11=2,25=1,30=1,71=1,74=-58,116=2/1,2,3;
 4/5=5,16=3,69=1/1;
 5/5=2,38=5/2;
 7//1,2,3,16;
 1/18=20,19=15,26=3/3(-5);
 2/9=110/2;
 6/7=2,8=2,9=2,10=2,19=2,28=1/1;
 99/9=1/99;
 ---------------
 something title
 ---------------
 Symbolic Z-matrix:
 Charge =  0 Multiplicity = 1
 N                     0.41858   1.78722   0. 
 C                     0.62821   0.55961   0. 
 N                    -2.77771  -0.61431   0. 
 N                    -3.68902  -0.02058   0. 
 O                     2.9378   -0.50372  -0.00001 
 N                     1.73563  -0.33761   0. 
 C                     0.53267  -0.8592    0.00001 
 H                    -0.56454   2.02692   0.00001 
 H                     0.02672  -1.81246   0.00001 
 
 Add virtual bond connecting atoms H9         and N3         Dist= 5.76D+00.

 GradGradGradGradGradGradGradGradGradGradGradGradGradGradGradGradGradGrad
 Berny optimization.
 Initialization pass.
                           ----------------------------
                           !    Initial Parameters    !
                           ! (Angstroms and Degrees)  !
 --------------------------                            --------------------------
 ! Name  Definition              Value          Derivative Info.                !
 --------------------------------------------------------------------------------
 ! R1    R(1,2)                  1.2454         estimate D2E/DX2                !
 ! R2    R(1,8)                  1.0119         estimate D2E/DX2                !
 ! R3    R(2,6)                  1.4253         estimate D2E/DX2                !
 ! R4    R(2,7)                  1.422          estimate D2E/DX2                !
 ! R5    R(3,4)                  1.0877         estimate D2E/DX2                !
 ! R6    R(3,9)                  3.0497         estimate D2E/DX2                !
 ! R7    R(5,6)                  1.2136         estimate D2E/DX2                !
 ! R8    R(6,7)                  1.3112         estimate D2E/DX2                !
 ! R9    R(7,9)                  1.0792         estimate D2E/DX2                !
 ! A1    A(2,1,8)              113.3928         estimate D2E/DX2                !
 ! A2    A(1,2,6)              138.7045         estimate D2E/DX2                !
 ! A3    A(2,6,5)              148.853          estimate D2E/DX2                !
 ! A4    A(5,6,7)              148.6919         estimate D2E/DX2                !
 ! A5    A(2,7,9)              155.8949         estimate D2E/DX2                !
 ! A6    A(6,7,9)              141.3985         estimate D2E/DX2                !
 ! A7    A(3,9,7)               94.8236         estimate D2E/DX2                !
 ! A8    L(1,2,7,4,-1)         166.4571         estimate D2E/DX2                !
 ! A9    L(4,3,9,8,-1)         170.0491         estimate D2E/DX2                !
 ! A10   L(1,2,7,4,-2)         180.0004         estimate D2E/DX2                !
 ! A11   L(4,3,9,8,-2)         179.9998         estimate D2E/DX2                !
 ! D1    D(8,1,2,6)           -179.9994         estimate D2E/DX2                !
 ! D2    D(8,1,7,9)              0.001          estimate D2E/DX2                !
 ! D3    D(1,2,6,5)             -0.0009         estimate D2E/DX2                !
 ! D4    D(1,2,6,7)            179.9995         estimate D2E/DX2                !
 ! D5    D(5,6,7,9)             -0.0004         estimate D2E/DX2                !
 ! D6    D(2,7,9,3)             -0.0008         estimate D2E/DX2                !
 ! D7    D(6,7,9,3)           -179.9991         estimate D2E/DX2                !
 --------------------------------------------------------------------------------
 Trust Radius=3.00D-01 FncErr=1.00D-07 GrdErr=1.00D-06 EigMax=2.50D+02 EigMin=1.00D-04
 Number of steps in this run=     37 maximum allowed number of steps=    100.
 GradGradGradGradGradGradGradGradGradGradGradGradGradGradGradGradGradGrad

                          Input orientation:                          
 ---------------------------------------------------------------------
 Center     Atomic      Atomic             Coordinates (Angstroms)
 Number     Number       Type             X           Y           Z
 ---------------------------------------------------------------------
      1          7           0        0.418580    1.787220    0.000000
      2          6           0        0.628210    0.559610    0.000000
      3          7           0       -2.777710   -0.614310    0.000000
      4          7           0       -3.689020   -0.020580    0.000000
      5          8           0        2.937800   -0.503720   -0.000010
      6          7           0        1.735630   -0.337610    0.000000
      7          6           0        0.532670   -0.859200    0.000010
      8          1           0       -0.564540    2.026920    0.000010
      9          1           0        0.026720   -1.812460    0.000010
 ---------------------------------------------------------------------
                    Distance matrix (angstroms):
                    1          2          3          4          5
     1  N    0.000000
     2  C    1.245380   0.000000
     3  N    3.997951   3.602552   0.000000
     4  N    4.487819   4.356041   1.087659   0.000000
     5  O    3.405125   2.542612   5.716580   6.644409   0.000000
     6  N    2.499905   1.425266   4.521814   5.433906   1.213592
     7  C    2.648878   1.422023   3.319426   4.304178   2.431258
     8  H    1.011919   1.890939   3.445899   3.735590   4.320940
     9  H    3.620946   2.447142   3.049654   4.125234   3.191737
                    6          7          8          9
     6  N    0.000000
     7  C    1.311171   0.000000
     8  H    3.298755   3.087646   0.000000
     9  H    2.257334   1.079208   3.884640   0.000000
 Stoichiometry    C2H2N4O
 Framework group  C1[X(C2H2N4O)]
 Deg. of freedom    21
 Full point group                 C1      NOp   1
 Largest Abelian subgroup         C1      NOp   1
 Largest concise Abelian subgroup C1      NOp   1
                         Standard orientation:                         
 ---------------------------------------------------------------------
 Center     Atomic      Atomic             Coordinates (Angstroms)
 Number     Number       Type             X           Y           Z
 ---------------------------------------------------------------------
      1          7           0        0.423239    1.785534    0.000000
      2          6           0        0.633210    0.557982    0.000000
      3          7           0       -2.772383   -0.616885    0.000000
      4          7           0       -3.683858   -0.023409    0.000000
      5          8           0        2.943096   -0.504705   -0.000010
      6          7           0        1.740880   -0.338930    0.000000
      7          6           0        0.538065   -0.860854    0.000010
      8          1           0       -0.559948    2.024960    0.000010
      9          1           0        0.032380   -1.814255    0.000010
 ---------------------------------------------------------------------
 Rotational constants (GHZ):           6.6727294           1.0318958           0.8936919
 Standard basis: def2TZVP (5D, 7F)
 There are   264 symmetry adapted cartesian basis functions of A   symmetry.
 There are   229 symmetry adapted basis functions of A   symmetry.
   229 basis functions,   373 primitive gaussians,   264 cartesian basis functions
    25 alpha electrons       25 beta electrons
       nuclear repulsion energy       236.5092074797 Hartrees.
 NAtoms=    9 NActive=    9 NUniq=    9 SFac= 1.00D+00 NAtFMM=   60 NAOKFM=F Big=F
 Integral buffers will be    131072 words long.
 Raffenetti 2 integral format.
 Two-electron integral symmetry is turned on.
 Nuclear repulsion after empirical dispersion term =      236.5068676014 Hartrees.
 One-electron integrals computed using PRISM.
   1 Symmetry operations used in ECPInt.
 ECPInt:  NShTT=    3655 NPrTT=   11788 LenC2=    3444 LenP2D=    8636.
 LDataN:  DoStor=T MaxTD1= 6 Len=  172
 NBasis=   229 RedAO= T EigKep=  8.21D-05  NBF=   229
 NBsUse=   229 1.00D-06 EigRej= -1.00D+00 NBFU=   229
 ExpMin= 9.52D-02 ExpMax= 2.70D+04 ExpMxC= 9.22D+02 IAcc=3 IRadAn=         5 AccDes= 0.00D+00
 Harris functional with IExCor= 4639 and IRadAn=       5 diagonalized for initial guess.
 HarFok:  IExCor= 4639 AccDes= 0.00D+00 IRadAn=         5 IDoV= 1 UseB2=F ITyADJ=14
 ICtDFT=  3500011 ScaDFX=  1.000000  1.000000  1.000000  1.000000
 FoFCou: FMM=F IPFlag=           0 FMFlag=      100000 FMFlg1=           0
         NFxFlg=           0 DoJE=T BraDBF=F KetDBF=T FulRan=T
         wScrn=  0.000000 ICntrl=       500 IOpCl=  0 I1Cent=   200000004 NGrid=           0
         NMat0=    1 NMatS0=      1 NMatT0=    0 NMatD0=    1 NMtDS0=    0 NMtDT0=    0
 Petite list used in FoFCou.
 Initial guess <Sx>= 0.0000 <Sy>= 0.0000 <Sz>= 0.0000 <S**2>=-0.0000 S=-0.0000
 Requested convergence on RMS density matrix=1.00D-08 within 128 cycles.
 Requested convergence on MAX density matrix=1.00D-06.
 Requested convergence on             energy=1.00D-06.
 No special actions if energy rises.
 Integral accuracy reduced to 1.0D-05 until final iterations.
 Initial convergence to 1.0D-05 achieved.  Increase integral accuracy.
 SCF Done:  E(UwB97XD) =  -371.512886310     A.U. after   16 cycles
            NFock= 16  Conv=0.50D-08     -V/T= 2.0039
 <Sx>= 0.0000 <Sy>= 0.0000 <Sz>= 0.0000 <S**2>=-0.0000 S=-0.0000
 <L.S>=  0.00000000000    
 Annihilation of the first spin contaminant:
 S**2 before annihilation    -0.0000,   after     0.0000

 **********************************************************************

            Population analysis using the SCF density.

 **********************************************************************

 Orbital symmetries:
 Alpha Orbitals:
       Occupied  (A) (A) (A) (A) (A) (A) (A) (A) (A) (A) (A) (A)
                 (A) (A) (A) (A) (A) (A) (A) (A) (A) (A) (A) (A)
                 (A)
       Virtual   (A) (A) (A) (A) (A) (A) (A) (A) (A) (A) (A) (A)
                 (A) (A) (A) (A) (A) (A) (A) (A) (A) (A) (A) (A)
                 (A) (A) (A) (A) (A) (A) (A) (A) (A) (A) (A) (A)
                 (A) (A) (A) (A) (A) (A) (A) (A) (A) (A) (A) (A)
                 (A) (A) (A) (A) (A) (A) (A) (A) (A) (A) (A) (A)
                 (A) (A) (A) (A) (A) (A) (A) (A) (A) (A) (A) (A)
                 (A) (A) (A) (A) (A) (A) (A) (A) (A) (A) (A) (A)
                 (A) (A) (A) (A) (A) (A) (A) (A) (A) (A) (A) (A)
                 (A) (A) (A) (A) (A) (A) (A) (A) (A) (A) (A) (A)
                 (A) (A) (A) (A) (A) (A) (A) (A) (A) (A) (A) (A)
                 (A) (A) (A) (A) (A) (A) (A) (A) (A) (A) (A) (A)
                 (A) (A) (A) (A) (A) (A) (A) (A) (A) (A) (A) (A)
                 (A) (A) (A) (A) (A) (A) (A) (A) (A) (A) (A) (A)
                 (A) (A) (A) (A) (A) (A) (A) (A) (A) (A) (A) (A)
                 (A) (A) (A) (A) (A) (A) (A) (A) (A) (A) (A) (A)
                 (A) (A) (A) (A) (A) (A) (A) (A) (A) (A) (A) (A)
                 (A) (A) (A) (A) (A) (A) (A) (A) (A) (A) (A) (A)
 Beta  Orbitals:
       Occupied  (A) (A) (A) (A) (A) (A) (A) (A) (A) (A) (A) (A)
                 (A) (A) (A) (A) (A) (A) (A) (A) (A) (A) (A) (A)
                 (A)
       Virtual   (A) (A) (A) (A) (A) (A) (A) (A) (A) (A) (A) (A)
                 (A) (A) (A) (A) (A) (A) (A) (A) (A) (A) (A) (A)
                 (A) (A) (A) (A) (A) (A) (A) (A) (A) (A) (A) (A)
                 (A) (A) (A) (A) (A) (A) (A) (A) (A) (A) (A) (A)
                 (A) (A) (A) (A) (A) (A) (A) (A) (A) (A) (A) (A)
                 (A) (A) (A) (A) (A) (A) (A) (A) (A) (A) (A) (A)
                 (A) (A) (A) (A) (A) (A) (A) (A) (A) (A) (A) (A)
                 (A) (A) (A) (A) (A) (A) (A) (A) (A) (A) (A) (A)
                 (A) (A) (A) (A) (A) (A) (A) (A) (A) (A) (A) (A)
                 (A) (A) (A) (A) (A) (A) (A) (A) (A) (A) (A) (A)
                 (A) (A) (A) (A) (A) (A) (A) (A) (A) (A) (A) (A)
                 (A) (A) (A) (A) (A) (A) (A) (A) (A) (A) (A) (A)
                 (A) (A) (A) (A) (A) (A) (A) (A) (A) (A) (A) (A)
                 (A) (A) (A) (A) (A) (A) (A) (A) (A) (A) (A) (A)
                 (A) (A) (A) (A) (A) (A) (A) (A) (A) (A) (A) (A)
                 (A) (A) (A) (A) (A) (A) (A) (A) (A) (A) (A) (A)
                 (A) (A) (A) (A) (A) (A) (A) (A) (A) (A) (A) (A)
 The electronic state is 1-A.
 Alpha  occ. eigenvalues --  -19.28281 -14.62207 -14.55732 -14.55522 -14.43149
 Alpha  occ. eigenvalues --  -10.41087 -10.38389  -1.28267  -1.25476  -1.12008
 Alpha  occ. eigenvalues --   -1.01153  -0.74740  -0.68861  -0.66683  -0.64199
 Alpha  occ. eigenvalues --   -0.62187  -0.59799  -0.58003  -0.57963  -0.54850
 Alpha  occ. eigenvalues --   -0.54299  -0.45346  -0.40170  -0.35013  -0.34577
 Alpha virt. eigenvalues --    0.01183   0.03465   0.03799   0.09383   0.11472
 Alpha virt. eigenvalues --    0.12412   0.15382   0.17469   0.22059   0.25558
 Alpha virt. eigenvalues --    0.26049   0.28641   0.31760   0.32813   0.34571
 Alpha virt. eigenvalues --    0.35005   0.35645   0.36506   0.39035   0.40652
 Alpha virt. eigenvalues --    0.41294   0.44080   0.45592   0.46634   0.49446
 Alpha virt. eigenvalues --    0.51049   0.51990   0.52008   0.53974   0.55464
 Alpha virt. eigenvalues --    0.59118   0.62277   0.63156   0.63165   0.64746
 Alpha virt. eigenvalues --    0.67483   0.71110   0.72718   0.74213   0.80780
 Alpha virt. eigenvalues --    0.81371   0.84440   0.85482   0.89009   0.89539
 Alpha virt. eigenvalues --    0.91060   0.92066   1.03262   1.05985   1.07268
 Alpha virt. eigenvalues --    1.12747   1.15866   1.17002   1.21351   1.23524
 Alpha virt. eigenvalues --    1.24796   1.27228   1.32585   1.33127   1.33655
 Alpha virt. eigenvalues --    1.36686   1.42006   1.43046   1.48062   1.50301
 Alpha virt. eigenvalues --    1.52591   1.55189   1.58931   1.62491   1.66531
 Alpha virt. eigenvalues --    1.68880   1.70358   1.71198   1.73573   1.75018
 Alpha virt. eigenvalues --    1.81911   1.82414   1.84725   1.90602   1.95348
 Alpha virt. eigenvalues --    1.99160   2.02350   2.03773   2.05498   2.08210
 Alpha virt. eigenvalues --    2.08491   2.11042   2.13890   2.16696   2.20340
 Alpha virt. eigenvalues --    2.21306   2.26244   2.32874   2.34826   2.36742
 Alpha virt. eigenvalues --    2.40461   2.45291   2.49031   2.50889   2.54796
 Alpha virt. eigenvalues --    2.56540   2.62804   2.64808   2.71431   2.72258
 Alpha virt. eigenvalues --    2.76618   2.85172   2.86973   2.89867   2.90991
 Alpha virt. eigenvalues --    2.92214   2.94761   3.01916   3.06645   3.09039
 Alpha virt. eigenvalues --    3.10984   3.14209   3.16640   3.19037   3.27851
 Alpha virt. eigenvalues --    3.31946   3.33082   3.36896   3.43126   3.52956
 Alpha virt. eigenvalues --    3.53378   3.53633   3.54799   3.55173   3.65851
 Alpha virt. eigenvalues --    3.66099   3.66202   3.68316   3.70187   3.72126
 Alpha virt. eigenvalues --    3.82692   3.92474   4.03981   4.07569   4.15227
 Alpha virt. eigenvalues --    4.15248   4.21455   4.23562   4.24867   4.25902
 Alpha virt. eigenvalues --    4.28744   4.41716   4.42595   4.45176   4.46298
 Alpha virt. eigenvalues --    4.53830   4.55087   4.55932   4.57784   4.59808
 Alpha virt. eigenvalues --    4.61657   4.71211   4.72612   4.76069   4.76080
 Alpha virt. eigenvalues --    4.82398   4.85115   4.88782   4.97528   5.00105
 Alpha virt. eigenvalues --    5.00139   5.03977   5.06242   5.07461   5.08063
 Alpha virt. eigenvalues --    5.08852   5.14763   5.20530   5.24801   5.24922
 Alpha virt. eigenvalues --    5.36562   5.47711   5.57830   5.60352   5.68583
 Alpha virt. eigenvalues --    5.78015   5.79500   5.88333   5.96801   6.09931
 Alpha virt. eigenvalues --    6.26402   6.34491   6.35548   6.36930   6.38509
 Alpha virt. eigenvalues --    6.59639   6.60399   6.73059   6.99416   7.23094
 Alpha virt. eigenvalues --    7.31684   7.55469  22.52691  23.40496  31.33084
 Alpha virt. eigenvalues --   32.17023  32.21366  32.68823  44.25876
  Beta  occ. eigenvalues --  -19.28281 -14.62207 -14.55732 -14.55522 -14.43149
  Beta  occ. eigenvalues --  -10.41087 -10.38389  -1.28267  -1.25476  -1.12008
  Beta  occ. eigenvalues --   -1.01153  -0.74740  -0.68861  -0.66683  -0.64199
  Beta  occ. eigenvalues --   -0.62187  -0.59799  -0.58003  -0.57963  -0.54850
  Beta  occ. eigenvalues --   -0.54299  -0.45346  -0.40170  -0.35013  -0.34577
  Beta virt. eigenvalues --    0.01183   0.03465   0.03799   0.09383   0.11472
  Beta virt. eigenvalues --    0.12412   0.15382   0.17469   0.22059   0.25558
  Beta virt. eigenvalues --    0.26049   0.28641   0.31760   0.32813   0.34571
  Beta virt. eigenvalues --    0.35005   0.35645   0.36506   0.39035   0.40652
  Beta virt. eigenvalues --    0.41294   0.44080   0.45592   0.46634   0.49446
  Beta virt. eigenvalues --    0.51049   0.51990   0.52008   0.53974   0.55464
  Beta virt. eigenvalues --    0.59118   0.62277   0.63156   0.63165   0.64746
  Beta virt. eigenvalues --    0.67483   0.71110   0.72718   0.74213   0.80780
  Beta virt. eigenvalues --    0.81371   0.84440   0.85482   0.89009   0.89539
  Beta virt. eigenvalues --    0.91060   0.92066   1.03262   1.05985   1.07268
  Beta virt. eigenvalues --    1.12747   1.15866   1.17002   1.21351   1.23524
  Beta virt. eigenvalues --    1.24796   1.27228   1.32585   1.33127   1.33655
  Beta virt. eigenvalues --    1.36686   1.42006   1.43046   1.48062   1.50301
  Beta virt. eigenvalues --    1.52591   1.55189   1.58931   1.62491   1.66531
  Beta virt. eigenvalues --    1.68880   1.70358   1.71198   1.73573   1.75018
  Beta virt. eigenvalues --    1.81911   1.82414   1.84725   1.90602   1.95348
  Beta virt. eigenvalues --    1.99160   2.02350   2.03773   2.05498   2.08210
  Beta virt. eigenvalues --    2.08491   2.11042   2.13890   2.16696   2.20340
  Beta virt. eigenvalues --    2.21306   2.26244   2.32874   2.34826   2.36742
  Beta virt. eigenvalues --    2.40461   2.45291   2.49031   2.50889   2.54796
  Beta virt. eigenvalues --    2.56540   2.62804   2.64808   2.71431   2.72258
  Beta virt. eigenvalues --    2.76618   2.85172   2.86973   2.89867   2.90991
  Beta virt. eigenvalues --    2.92214   2.94761   3.01916   3.06645   3.09039
  Beta virt. eigenvalues --    3.10984   3.14209   3.16640   3.19037   3.27851
  Beta virt. eigenvalues --    3.31946   3.33082   3.36896   3.43126   3.52956
  Beta virt. eigenvalues --    3.53378   3.53633   3.54799   3.55173   3.65851
  Beta virt. eigenvalues --    3.66099   3.66202   3.68316   3.70187   3.72126
  Beta virt. eigenvalues --    3.82692   3.92474   4.03981   4.07569   4.15227
  Beta virt. eigenvalues --    4.15248   4.21455   4.23562   4.24867   4.25902
  Beta virt. eigenvalues --    4.28744   4.41716   4.42595   4.45176   4.46298
  Beta virt. eigenvalues --    4.53830   4.55087   4.55932   4.57784   4.59808
  Beta virt. eigenvalues --    4.61657   4.71211   4.72612   4.76069   4.76080
  Beta virt. eigenvalues --    4.82398   4.85115   4.88782   4.97528   5.00105
  Beta virt. eigenvalues --    5.00139   5.03977   5.06242   5.07461   5.08063
  Beta virt. eigenvalues --    5.08852   5.14763   5.20530   5.24801   5.24922
  Beta virt. eigenvalues --    5.36562   5.47711   5.57830   5.60352   5.68583
  Beta virt. eigenvalues --    5.78015   5.79500   5.88333   5.96801   6.09931
  Beta virt. eigenvalues --    6.26402   6.34491   6.35548   6.36930   6.38509
  Beta virt. eigenvalues --    6.59639   6.60399   6.73059   6.99416   7.23094
  Beta virt. eigenvalues --    7.31684   7.55469  22.52691  23.40496  31.33084
  Beta virt. eigenvalues --   32.17023  32.21366  32.68823  44.25876
          Condensed to atoms (all electrons):
               1          2          3          4          5          6
     1  N    6.436918   0.681767  -0.000606   0.000064   0.000617  -0.041593
     2  C    0.681767   4.886627  -0.004061   0.000048  -0.027999   0.234841
     3  N   -0.000606  -0.004061   6.327793   0.661321  -0.000003  -0.000035
     4  N    0.000064   0.000048   0.661321   6.346250   0.000000  -0.000009
     5  O    0.000617  -0.027999  -0.000003   0.000000   8.116570   0.333476
     6  N   -0.041593   0.234841  -0.000035  -0.000009   0.333476   5.906469
     7  C   -0.074265   0.202516   0.000747  -0.000305  -0.048826   0.331965
     8  H    0.334666  -0.050079   0.000701   0.000806  -0.000830   0.011377
     9  H    0.002483  -0.000073   0.002826   0.000206   0.000760  -0.013472
               7          8          9
     1  N   -0.074265   0.334666   0.002483
     2  C    0.202516  -0.050079  -0.000073
     3  N    0.000747   0.000701   0.002826
     4  N   -0.000305   0.000806   0.000206
     5  O   -0.048826  -0.000830   0.000760
     6  N    0.331965   0.011377  -0.013472
     7  C    5.282995  -0.023218   0.355580
     8  H   -0.023218   0.495881   0.001128
     9  H    0.355580   0.001128   0.455457
          Atomic-Atomic Spin Densities.
               1          2          3          4          5          6
     1  N   -0.000000   0.000000  -0.000000   0.000000  -0.000000   0.000000
     2  C    0.000000  -0.000000  -0.000000   0.000000   0.000000  -0.000000
     3  N   -0.000000  -0.000000   0.000000  -0.000000  -0.000000   0.000000
     4  N    0.000000   0.000000  -0.000000  -0.000000  -0.000000  -0.000000
     5  O   -0.000000   0.000000  -0.000000  -0.000000  -0.000000   0.000000
     6  N    0.000000  -0.000000   0.000000  -0.000000   0.000000   0.000000
     7  C   -0.000000   0.000000   0.000000  -0.000000  -0.000000   0.000000
     8  H   -0.000000   0.000000  -0.000000  -0.000000  -0.000000   0.000000
     9  H    0.000000   0.000000   0.000000  -0.000000  -0.000000   0.000000
               7          8          9
     1  N   -0.000000  -0.000000   0.000000
     2  C    0.000000   0.000000   0.000000
     3  N    0.000000  -0.000000   0.000000
     4  N   -0.000000  -0.000000  -0.000000
     5  O   -0.000000  -0.000000  -0.000000
     6  N    0.000000   0.000000   0.000000
     7  C    0.000000   0.000000  -0.000000
     8  H    0.000000  -0.000000   0.000000
     9  H   -0.000000   0.000000  -0.000000
 Mulliken charges and spin densities:
               1          2
     1  N   -0.340049  -0.000000
     2  C    0.076412   0.000000
     3  N    0.011318   0.000000
     4  N   -0.008381  -0.000000
     5  O   -0.373765  -0.000000
     6  N    0.236982  -0.000000
     7  C   -0.027190   0.000000
     8  H    0.229568  -0.000000
     9  H    0.195104  -0.000000
 Sum of Mulliken charges =  -0.00000   0.00000
 Mulliken charges and spin densities with hydrogens summed into heavy atoms:
               1          2
     1  N   -0.110481  -0.000000
     2  C    0.076412   0.000000
     3  N    0.011318   0.000000
     4  N   -0.008381  -0.000000
     5  O   -0.373765  -0.000000
     6  N    0.236982  -0.000000
     7  C    0.167915   0.000000
 Electronic spatial extent (au):  <R**2>=           1116.9240
 Charge=             -0.0000 electrons
 Dipole moment (field-independent basis, Debye):
    X=             -4.1177    Y=             -2.3005    Z=              0.0000  Tot=              4.7168
 Quadrupole moment (field-independent basis, Debye-Ang):
   XX=            -48.2840   YY=            -39.4915   ZZ=            -38.1583
   XY=             -1.3441   XZ=              0.0000   YZ=              0.0000
 Traceless Quadrupole moment (field-independent basis, Debye-Ang):
   XX=             -6.3061   YY=              2.4865   ZZ=              3.8196
   XY=             -1.3441   XZ=              0.0000   YZ=              0.0000
 Octapole moment (field-independent basis, Debye-Ang**2):
  XXX=            -30.4717  YYY=            -15.7080  ZZZ=             -0.0000  XYY=             -9.9783
  XXY=              0.3343  XXZ=              0.0001  XZZ=              0.2794  YZZ=             -1.7095
  YYZ=              0.0001  XYZ=             -0.0000
 Hexadecapole moment (field-independent basis, Debye-Ang**3):
 XXXX=          -1249.3533 YYYY=           -237.1986 ZZZZ=            -34.8136 XXXY=             32.5600
 XXXZ=              0.0009 YYYX=            -22.9089 YYYZ=              0.0002 ZZZX=              0.0004
 ZZZY=              0.0001 XXYY=           -229.2155 XXZZ=           -184.8457 YYZZ=            -46.5452
 XXYZ=             -0.0000 YYXZ=              0.0001 ZZXY=             -1.8579
 N-N= 2.365068676014D+02 E-N=-1.342126117517D+03  KE= 3.700785181199D+02
                          Isotropic Fermi Contact Couplings
        Atom                 a.u.       MegaHertz       Gauss      10(-4) cm-1
     1  N(14)             -0.00000      -0.00000      -0.00000      -0.00000
     2  C(13)              0.00000       0.00000       0.00000       0.00000
     3  N(14)              0.00000       0.00000       0.00000       0.00000
     4  N(14)             -0.00000      -0.00000      -0.00000      -0.00000
     5  O(17)              0.00000      -0.00000      -0.00000      -0.00000
     6  N(14)             -0.00000      -0.00000      -0.00000      -0.00000
     7  C(13)              0.00000       0.00000       0.00000       0.00000
     8  H(1)               0.00000       0.00000       0.00000       0.00000
     9  H(1)               0.00000       0.00000       0.00000       0.00000
 --------------------------------------------------------
       Center         ----  Spin Dipole Couplings  ----
                      3XX-RR        3YY-RR        3ZZ-RR
 --------------------------------------------------------
     1   Atom        0.000000     -0.000000      0.000000
     2   Atom        0.000000     -0.000000      0.000000
     3   Atom        0.000000     -0.000000     -0.000000
     4   Atom       -0.000000      0.000000      0.000000
     5   Atom       -0.000000      0.000000     -0.000000
     6   Atom        0.000000      0.000000     -0.000000
     7   Atom       -0.000000      0.000000     -0.000000
     8   Atom        0.000000     -0.000000     -0.000000
     9   Atom        0.000000     -0.000000      0.000000
 --------------------------------------------------------
                        XY            XZ            YZ
 --------------------------------------------------------
     1   Atom       -0.000000      0.000000      0.000000
     2   Atom        0.000000     -0.000000     -0.000000
     3   Atom       -0.000000     -0.000000      0.000000
     4   Atom        0.000000     -0.000000     -0.000000
     5   Atom        0.000000     -0.000000     -0.000000
     6   Atom        0.000000      0.000000      0.000000
     7   Atom        0.000000     -0.000000      0.000000
     8   Atom        0.000000      0.000000      0.000000
     9   Atom        0.000000      0.000000      0.000000
 --------------------------------------------------------


 ---------------------------------------------------------------------------------
              Anisotropic Spin Dipole Couplings in Principal Axis System
 ---------------------------------------------------------------------------------

       Atom             a.u.   MegaHertz   Gauss  10(-4) cm-1        Axes

              Baa    -0.0000    -0.000    -0.000    -0.000  0.0147  0.9999 -0.0012
     1 N(14)  Bbb     0.0000     0.000     0.000     0.000 -0.0007  0.0012  1.0000
              Bcc     0.0000     0.000     0.000     0.000  0.9999 -0.0147  0.0007
 
              Baa    -0.0000    -0.000    -0.000    -0.000 -0.1760  0.9844  0.0009
     2 C(13)  Bbb     0.0000     0.000     0.000     0.000  0.9844  0.1760  0.0007
              Bcc     0.0000     0.000     0.000     0.000 -0.0005 -0.0010  1.0000
 
              Baa    -0.0000    -0.000    -0.000    -0.000  0.0064  0.0072  1.0000
     3 N(14)  Bbb    -0.0000    -0.000    -0.000    -0.000  0.4278  0.9038 -0.0093
              Bcc     0.0000     0.000     0.000     0.000  0.9038 -0.4279 -0.0027
 
              Baa    -0.0000    -0.000    -0.000    -0.000  0.8652 -0.5013  0.0008
     4 N(14)  Bbb     0.0000     0.000     0.000     0.000  0.4979  0.8596  0.1149
              Bcc     0.0000     0.000     0.000     0.000 -0.0583 -0.0990  0.9934
 
              Baa    -0.0000     0.000     0.000     0.000  0.5793 -0.0949  0.8096
     5 O(17)  Bbb    -0.0000     0.000     0.000     0.000  0.7955 -0.1510 -0.5869
              Bcc     0.0000    -0.000    -0.000    -0.000  0.1780  0.9840 -0.0120
 
              Baa    -0.0000    -0.000    -0.000    -0.000 -0.0002 -0.0099  1.0000
     6 N(14)  Bbb    -0.0000    -0.000    -0.000    -0.000 -0.4887  0.8724  0.0085
              Bcc     0.0000     0.000     0.000     0.000  0.8725  0.4886  0.0050
 
              Baa    -0.0000    -0.000    -0.000    -0.000  0.7893 -0.6140  0.0069
     7 C(13)  Bbb    -0.0000    -0.000    -0.000    -0.000 -0.0052  0.0046  1.0000
              Bcc     0.0000     0.000     0.000     0.000  0.6140  0.7893 -0.0004
 
              Baa    -0.0000    -0.000    -0.000    -0.000 -0.6215  0.7834  0.0007
     8 H(1)   Bbb    -0.0000    -0.000    -0.000    -0.000 -0.0006 -0.0013  1.0000
              Bcc     0.0000     0.000     0.000     0.000  0.7834  0.6215  0.0013
 
              Baa    -0.0000    -0.000    -0.000    -0.000 -0.1251  0.9921 -0.0109
     9 H(1)   Bbb     0.0000     0.000     0.000     0.000 -0.0464  0.0052  0.9989
              Bcc     0.0000     0.000     0.000     0.000  0.9911  0.1254  0.0454
 

 ---------------------------------------------------------------------------------

   1 Symmetry operations used in ECPInt.
 ECPInt:  NShTT=    3655 NPrTT=   11788 LenC2=    3444 LenP2D=    8636.
 LDataN:  DoStor=T MaxTD1= 7 Len=  274
 Calling FoFJK, ICntrl=      2127 FMM=F ISym2X=0 I1Cent= 0 IOpClX= 1 NMat=1 NMatS=1 NMatT=0.
 ***** Axes restored to original set *****
 -------------------------------------------------------------------
 Center     Atomic                   Forces (Hartrees/Bohr)
 Number     Number              X              Y              Z
 -------------------------------------------------------------------
      1        7          -0.001237350   -0.001979173   -0.000000108
      2        6           0.000032210    0.005246665    0.000000918
      3        7          -0.000249311   -0.000047872    0.000000001
      4        7          -0.000144795    0.000096978   -0.000000002
      5        8          -0.000718667   -0.003324442    0.000000174
      6        7           0.003620373   -0.001462449   -0.000000548
      7        6           0.001129619    0.002197966   -0.000000418
      8        1          -0.002357060   -0.000701980   -0.000000198
      9        1          -0.000075019   -0.000025693    0.000000181
 -------------------------------------------------------------------
 Cartesian Forces:  Max     0.005246665 RMS     0.001633533

 GradGradGradGradGradGradGradGradGradGradGradGradGradGradGradGradGradGrad
 Berny optimization.
 FormGI is forming the generalized inverse of G from B-inverse, IUseBI=4.
 Internal  Forces:  Max     0.006669787 RMS     0.002527462
 Search for a local minimum.
 Step number   1 out of a maximum of   37
 All quantities printed in internal units (Hartrees-Bohrs-Radians)
 Mixed Optimization -- RFO/linear search
 Second derivative matrix not updated -- first step.
 ITU=  0
     Eigenvalues ---    0.00230   0.00233   0.00370   0.00413   0.01094
     Eigenvalues ---    0.01203   0.02299   0.02955   0.13000   0.16000
     Eigenvalues ---    0.16000   0.25000   0.25000   0.36090   0.37451
     Eigenvalues ---    0.40641   0.45653   0.59356   0.84967   0.98280
     Eigenvalues ---    1.89770
 RFO step:  Lambda=-8.24711282D-04 EMin= 2.30000000D-03
 Linear search not attempted -- first point.
 Iteration  1 RMS(Cart)=  0.03876884 RMS(Int)=  0.00073047
 Iteration  2 RMS(Cart)=  0.00088253 RMS(Int)=  0.00000466
 Iteration  3 RMS(Cart)=  0.00000032 RMS(Int)=  0.00000466
 Variable       Old X    -DE/DX   Delta X   Delta X   Delta X     New X
                                 (Linear)    (Quad)   (Total)
    R1        2.35343  -0.00204   0.00000  -0.00240  -0.00240   2.35103
    R2        1.91225   0.00212   0.00000   0.00464   0.00464   1.91689
    R3        2.69336   0.00641   0.00000   0.01475   0.01475   2.70811
    R4        2.68723  -0.00188   0.00000  -0.00735  -0.00735   2.67988
    R5        2.05538   0.00017   0.00000   0.00009   0.00009   2.05547
    R6        5.76301   0.00038   0.00000   0.03251   0.03251   5.79552
    R7        2.29336  -0.00026   0.00000  -0.00026  -0.00026   2.29310
    R8        2.47775  -0.00165   0.00000  -0.00009  -0.00008   2.47767
    R9        2.03941   0.00020   0.00000   0.00055   0.00055   2.03995
    A1        1.97908  -0.00237   0.00000  -0.01474  -0.01474   1.96433
    A2        2.42085   0.00667   0.00000   0.04375   0.04377   2.46462
    A3        2.59798   0.00498   0.00000   0.01910   0.01909   2.61707
    A4        2.59516  -0.00280   0.00000  -0.01192  -0.01192   2.58324
    A5        2.72088  -0.00201   0.00000  -0.00512  -0.00513   2.71575
    A6        2.46787  -0.00175   0.00000  -0.00354  -0.00355   2.46432
    A7        1.65498   0.00062   0.00000   0.00246   0.00246   1.65744
    A8        2.90522  -0.00510   0.00000  -0.04227  -0.04226   2.86297
    A9        2.96792  -0.00001   0.00000  -0.00205  -0.00205   2.96586
   A10        3.14160  -0.00000   0.00000  -0.00000  -0.00000   3.14160
   A11        3.14159   0.00000   0.00000   0.00000   0.00000   3.14159
    D1       -3.14158  -0.00000   0.00000  -0.00001  -0.00001  -3.14159
    D2        0.00002  -0.00000   0.00000  -0.00002  -0.00002   0.00000
    D3       -0.00002   0.00000   0.00000   0.00001   0.00001  -0.00000
    D4        3.14158   0.00000   0.00000   0.00001   0.00001   3.14159
    D5       -0.00001  -0.00000   0.00000   0.00000   0.00000  -0.00000
    D6       -0.00001   0.00000   0.00000   0.00002   0.00002   0.00000
    D7       -3.14158  -0.00000   0.00000  -0.00001  -0.00001  -3.14159
         Item               Value     Threshold  Converged?
 Maximum Force            0.006670     0.000450     NO 
 RMS     Force            0.002527     0.000300     NO 
 Maximum Displacement     0.114511     0.001800     NO 
 RMS     Displacement     0.038897     0.001200     NO 
 Predicted change in Energy=-4.146497D-04
 GradGradGradGradGradGradGradGradGradGradGradGradGradGradGradGradGradGrad

                          Input orientation:                          
 ---------------------------------------------------------------------
 Center     Atomic      Atomic             Coordinates (Angstroms)
 Number     Number       Type             X           Y           Z
 ---------------------------------------------------------------------
      1          7           0        0.382980    1.782947    0.000002
      2          6           0        0.644468    0.566626    0.000001
      3          7           0       -2.778374   -0.588027    0.000003
      4          7           0       -3.687129    0.009695    0.000001
      5          8           0        2.955351   -0.527149   -0.000005
      6          7           0        1.756924   -0.336775   -0.000002
      7          6           0        0.549711   -0.848337    0.000005
      8          1           0       -0.614683    1.966323    0.000006
      9          1           0        0.039092   -1.799433    0.000008
 ---------------------------------------------------------------------
                    Distance matrix (angstroms):
                    1          2          3          4          5
     1  N    0.000000
     2  C    1.244112   0.000000
     3  N    3.951668   3.612350   0.000000
     4  N    4.439618   4.367254   1.087707   0.000000
     5  O    3.457404   2.556663   5.734049   6.664139   0.000000
     6  N    2.526053   1.433070   4.542253   5.455067   1.213454
     7  C    2.636562   1.418132   3.338251   4.322851   2.426987
     8  H    1.014376   1.882715   3.347576   3.642570   4.354601
     9  H    3.598848   2.442276   3.066859   4.142182   3.181709
                    6          7          8          9
     6  N    0.000000
     7  C    1.311129   0.000000
     8  H    3.305871   3.046002   0.000000
     9  H    2.256173   1.079498   3.822086   0.000000
 Stoichiometry    C2H2N4O
 Framework group  C1[X(C2H2N4O)]
 Deg. of freedom    21
 Full point group                 C1      NOp   1
 Largest Abelian subgroup         C1      NOp   1
 Largest concise Abelian subgroup C1      NOp   1
                         Standard orientation:                         
 ---------------------------------------------------------------------
 Center     Atomic      Atomic             Coordinates (Angstroms)
 Number     Number       Type             X           Y           Z
 ---------------------------------------------------------------------
      1          7           0        0.362054    1.780846    0.000001
      2          6           0        0.638474    0.567831    0.000000
      3          7           0       -2.769916   -0.628810    0.000002
      4          7           0       -3.685950   -0.042304    0.000000
      5          8           0        2.962628   -0.497455   -0.000006
      6          7           0        1.761951   -0.321826   -0.000003
      7          6           0        0.561118   -0.848190    0.000004
      8          1           0       -0.637788    1.951945    0.000005
      9          1           0        0.062229   -1.805491    0.000007
 ---------------------------------------------------------------------
 Rotational constants (GHZ):           6.7381397           1.0262135           0.8905790
 Standard basis: def2TZVP (5D, 7F)
 There are   264 symmetry adapted cartesian basis functions of A   symmetry.
 There are   229 symmetry adapted basis functions of A   symmetry.
   229 basis functions,   373 primitive gaussians,   264 cartesian basis functions
    25 alpha electrons       25 beta electrons
       nuclear repulsion energy       236.2849714770 Hartrees.
 NAtoms=    9 NActive=    9 NUniq=    9 SFac= 1.00D+00 NAtFMM=   60 NAOKFM=F Big=F
 Integral buffers will be    131072 words long.
 Raffenetti 2 integral format.
 Two-electron integral symmetry is turned on.
 Nuclear repulsion after empirical dispersion term =      236.2826048574 Hartrees.
 One-electron integrals computed using PRISM.
   1 Symmetry operations used in ECPInt.
 ECPInt:  NShTT=    3655 NPrTT=   11788 LenC2=    3446 LenP2D=    8633.
 LDataN:  DoStor=T MaxTD1= 6 Len=  172
 NBasis=   229 RedAO= T EigKep=  8.23D-05  NBF=   229
 NBsUse=   229 1.00D-06 EigRej= -1.00D+00 NBFU=   229
 Initial guess from the checkpoint file:  "/scratch/23935644/Gau-25580.chk"
 B after Tr=     0.000000    0.000000   -0.000000
         Rot=    0.999991   -0.000000    0.000000   -0.004217 Ang=  -0.48 deg.
 Initial guess <Sx>= 0.0000 <Sy>= 0.0000 <Sz>= 0.0000 <S**2>=-0.0000 S=-0.0000
 ExpMin= 9.52D-02 ExpMax= 2.70D+04 ExpMxC= 9.22D+02 IAcc=2 IRadAn=         4 AccDes= 0.00D+00
 Harris functional with IExCor= 4639 and IRadAn=       4 diagonalized for initial guess.
 HarFok:  IExCor= 4639 AccDes= 0.00D+00 IRadAn=         4 IDoV= 1 UseB2=F ITyADJ=14
 ICtDFT=  3500011 ScaDFX=  1.000000  1.000000  1.000000  1.000000
 FoFCou: FMM=F IPFlag=           0 FMFlag=      100000 FMFlg1=           0
         NFxFlg=           0 DoJE=T BraDBF=F KetDBF=T FulRan=T
         wScrn=  0.000000 ICntrl=       500 IOpCl=  0 I1Cent=   200000004 NGrid=           0
         NMat0=    1 NMatS0=      1 NMatT0=    0 NMatD0=    1 NMtDS0=    0 NMtDT0=    0
 Petite list used in FoFCou.
 Requested convergence on RMS density matrix=1.00D-08 within 128 cycles.
 Requested convergence on MAX density matrix=1.00D-06.
 Requested convergence on             energy=1.00D-06.
 No special actions if energy rises.
 Integral accuracy reduced to 1.0D-05 until final iterations.
 Initial convergence to 1.0D-05 achieved.  Increase integral accuracy.
 SCF Done:  E(UwB97XD) =  -371.513413652     A.U. after   13 cycles
            NFock= 13  Conv=0.58D-08     -V/T= 2.0039
 <Sx>= 0.0000 <Sy>= 0.0000 <Sz>= 0.0000 <S**2>=-0.0000 S=-0.0000
 <L.S>=  0.00000000000    
 Annihilation of the first spin contaminant:
 S**2 before annihilation    -0.0000,   after     0.0000
   1 Symmetry operations used in ECPInt.
 ECPInt:  NShTT=    3655 NPrTT=   11788 LenC2=    3446 LenP2D=    8633.
 LDataN:  DoStor=T MaxTD1= 7 Len=  274
 Calling FoFJK, ICntrl=      2127 FMM=F ISym2X=0 I1Cent= 0 IOpClX= 1 NMat=1 NMatS=1 NMatT=0.
 ***** Axes restored to original set *****
 -------------------------------------------------------------------
 Center     Atomic                   Forces (Hartrees/Bohr)
 Number     Number              X              Y              Z
 -------------------------------------------------------------------
      1        7           0.000133406   -0.000469970   -0.000000139
      2        6          -0.002835357    0.002506947    0.000000241
      3        7          -0.000282751    0.000036689    0.000000001
      4        7          -0.000065966    0.000012890   -0.000000001
      5        8          -0.000619164   -0.001918036   -0.000000069
      6        7           0.001945381    0.000065295    0.000000138
      7        6           0.001711067    0.000134213   -0.000000238
      8        1          -0.000243787   -0.000458313    0.000000013
      9        1           0.000257172    0.000090286    0.000000053
 -------------------------------------------------------------------
 Cartesian Forces:  Max     0.002835357 RMS     0.000977318

 GradGradGradGradGradGradGradGradGradGradGradGradGradGradGradGradGradGrad
 Berny optimization.
 Using GEDIIS/GDIIS optimizer.
 FormGI is forming the generalized inverse of G from B-inverse, IUseBI=4.
 Internal  Forces:  Max     0.003186070 RMS     0.001029640
 Search for a local minimum.
 Step number   2 out of a maximum of   37
 All quantities printed in internal units (Hartrees-Bohrs-Radians)
 Mixed Optimization -- RFO/linear search
 Update second derivatives using D2CorX and points    1    2
 DE= -5.27D-04 DEPred=-4.15D-04 R= 1.27D+00
 TightC=F SS=  1.41D+00  RLast= 7.64D-02 DXNew= 5.0454D-01 2.2908D-01
 Trust test= 1.27D+00 RLast= 7.64D-02 DXMaxT set to 3.00D-01
 ITU=  1  0
 Use linear search instead of GDIIS.
     Eigenvalues ---    0.00230   0.00234   0.00376   0.00424   0.01061
     Eigenvalues ---    0.01202   0.02269   0.02950   0.12050   0.15785
     Eigenvalues ---    0.16046   0.22325   0.25012   0.34526   0.36099
     Eigenvalues ---    0.40353   0.45815   0.59131   0.84730   0.98275
     Eigenvalues ---    1.89769
 RFO step:  Lambda=-7.81699290D-05 EMin= 2.30072417D-03
 Quartic linear search produced a step of  0.38604.
 Iteration  1 RMS(Cart)=  0.02068175 RMS(Int)=  0.00021682
 Iteration  2 RMS(Cart)=  0.00020792 RMS(Int)=  0.00000338
 Iteration  3 RMS(Cart)=  0.00000000 RMS(Int)=  0.00000338
 Variable       Old X    -DE/DX   Delta X   Delta X   Delta X     New X
                                 (Linear)    (Quad)   (Total)
    R1        2.35103  -0.00088  -0.00093  -0.00074  -0.00167   2.34936
    R2        1.91689   0.00016   0.00179  -0.00088   0.00091   1.91780
    R3        2.70811   0.00319   0.00569   0.00704   0.01273   2.72084
    R4        2.67988  -0.00011  -0.00284   0.00115  -0.00169   2.67819
    R5        2.05547   0.00006   0.00004   0.00002   0.00005   2.05552
    R6        5.79552   0.00034   0.01255   0.03243   0.04498   5.84050
    R7        2.29310  -0.00031  -0.00010  -0.00036  -0.00046   2.29263
    R8        2.47767  -0.00138  -0.00003  -0.00303  -0.00305   2.47462
    R9        2.03995  -0.00008   0.00021  -0.00047  -0.00026   2.03969
    A1        1.96433  -0.00095  -0.00569  -0.00388  -0.00957   1.95476
    A2        2.46462   0.00142   0.01690  -0.00408   0.01282   2.47744
    A3        2.61707   0.00258   0.00737   0.00847   0.01584   2.63291
    A4        2.58324  -0.00198  -0.00460  -0.00777  -0.01237   2.57087
    A5        2.71575  -0.00076  -0.00198  -0.00038  -0.00237   2.71338
    A6        2.46432  -0.00102  -0.00137  -0.00318  -0.00456   2.45977
    A7        1.65744   0.00057   0.00095   0.00245   0.00340   1.66084
    A8        2.86297  -0.00024  -0.01631   0.00694  -0.00937   2.85360
    A9        2.96586   0.00005  -0.00079   0.03009   0.02930   2.99516
   A10        3.14160  -0.00000  -0.00000  -0.00000  -0.00001   3.14159
   A11        3.14159   0.00000   0.00000   0.00000   0.00000   3.14160
    D1       -3.14159  -0.00000  -0.00000   0.00000  -0.00000  -3.14159
    D2        0.00000   0.00000  -0.00001   0.00002   0.00001   0.00002
    D3       -0.00000   0.00000   0.00001  -0.00000   0.00000   0.00000
    D4        3.14159   0.00000   0.00000   0.00001   0.00001  -3.14158
    D5       -0.00000   0.00000   0.00000   0.00000   0.00001   0.00000
    D6        0.00000   0.00000   0.00001  -0.00001  -0.00000   0.00000
    D7       -3.14159  -0.00000  -0.00000   0.00001   0.00001  -3.14158
         Item               Value     Threshold  Converged?
 Maximum Force            0.003186     0.000450     NO 
 RMS     Force            0.001030     0.000300     NO 
 Maximum Displacement     0.060951     0.001800     NO 
 RMS     Displacement     0.020606     0.001200     NO 
 Predicted change in Energy=-8.364087D-05
 GradGradGradGradGradGradGradGradGradGradGradGradGradGradGradGradGradGrad

                          Input orientation:                          
 ---------------------------------------------------------------------
 Center     Atomic      Atomic             Coordinates (Angstroms)
 Number     Number       Type             X           Y           Z
 ---------------------------------------------------------------------
      1          7           0        0.381568    1.787843   -0.000001
      2          6           0        0.654889    0.575031    0.000005
      3          7           0       -2.792595   -0.572751    0.000003
      4          7           0       -3.719383   -0.003335   -0.000004
      5          8           0        2.964316   -0.548668   -0.000013
      6          7           0        1.769913   -0.335881   -0.000001
      7          6           0        0.560943   -0.839089    0.000009
      8          1           0       -0.619951    1.951842    0.000011
      9          1           0        0.048640   -1.789122    0.000012
 ---------------------------------------------------------------------
                    Distance matrix (angstroms):
                    1          2          3          4          5
     1  N    0.000000
     2  C    1.243229   0.000000
     3  N    3.955719   3.633531   0.000000
     4  N    4.475055   4.412342   1.087736   0.000000
     5  O    3.482797   2.568297   5.756961   6.705909   0.000000
     6  N    2.537264   1.439805   4.568653   5.499360   1.213209
     7  C    2.633049   1.417237   3.364098   4.361156   2.420856
     8  H    1.014857   1.876386   3.330758   3.664587   4.370299
     9  H    3.592425   2.440646   3.090659   4.169776   3.168578
                    6          7          8          9
     6  N    0.000000
     7  C    1.309514   0.000000
     8  H    3.308342   3.030480   0.000000
     9  H    2.252707   1.079359   3.800240   0.000000
 Stoichiometry    C2H2N4O
 Framework group  C1[X(C2H2N4O)]
 Deg. of freedom    21
 Full point group                 C1      NOp   1
 Largest Abelian subgroup         C1      NOp   1
 Largest concise Abelian subgroup C1      NOp   1
                         Standard orientation:                         
 ---------------------------------------------------------------------
 Center     Atomic      Atomic             Coordinates (Angstroms)
 Number     Number       Type             X           Y           Z
 ---------------------------------------------------------------------
      1          7           0        0.357810    1.786728   -0.000001
      2          6           0        0.648412    0.577940    0.000006
      3          7           0       -2.782340   -0.618925    0.000003
      4          7           0       -3.717160   -0.062794   -0.000004
      5          8           0        2.973641   -0.512685   -0.000013
      6          7           0        1.776323   -0.316966   -0.000000
      7          6           0        0.574658   -0.837376    0.000010
      8          1           0       -0.645947    1.936417    0.000011
      9          1           0        0.075965   -1.794623    0.000012
 ---------------------------------------------------------------------
 Rotational constants (GHZ):           6.7225634           1.0133183           0.8805844
 Standard basis: def2TZVP (5D, 7F)
 There are   264 symmetry adapted cartesian basis functions of A   symmetry.
 There are   229 symmetry adapted basis functions of A   symmetry.
   229 basis functions,   373 primitive gaussians,   264 cartesian basis functions
    25 alpha electrons       25 beta electrons
       nuclear repulsion energy       235.7881531587 Hartrees.
 NAtoms=    9 NActive=    9 NUniq=    9 SFac= 1.00D+00 NAtFMM=   60 NAOKFM=F Big=F
 Integral buffers will be    131072 words long.
 Raffenetti 2 integral format.
 Two-electron integral symmetry is turned on.
 Nuclear repulsion after empirical dispersion term =      235.7858074914 Hartrees.
 One-electron integrals computed using PRISM.
   1 Symmetry operations used in ECPInt.
 ECPInt:  NShTT=    3655 NPrTT=   11788 LenC2=    3441 LenP2D=    8620.
 LDataN:  DoStor=T MaxTD1= 6 Len=  172
 NBasis=   229 RedAO= T EigKep=  8.26D-05  NBF=   229
 NBsUse=   229 1.00D-06 EigRej= -1.00D+00 NBFU=   229
 Initial guess from the checkpoint file:  "/scratch/23935644/Gau-25580.chk"
 B after Tr=    -0.000000   -0.000000    0.000000
         Rot=    1.000000    0.000000   -0.000000   -0.000480 Ang=   0.06 deg.
 Initial guess <Sx>= 0.0000 <Sy>= 0.0000 <Sz>= 0.0000 <S**2>=-0.0000 S=-0.0000
 ExpMin= 9.52D-02 ExpMax= 2.70D+04 ExpMxC= 9.22D+02 IAcc=2 IRadAn=         4 AccDes= 0.00D+00
 Harris functional with IExCor= 4639 and IRadAn=       4 diagonalized for initial guess.
 HarFok:  IExCor= 4639 AccDes= 0.00D+00 IRadAn=         4 IDoV= 1 UseB2=F ITyADJ=14
 ICtDFT=  3500011 ScaDFX=  1.000000  1.000000  1.000000  1.000000
 FoFCou: FMM=F IPFlag=           0 FMFlag=      100000 FMFlg1=           0
         NFxFlg=           0 DoJE=T BraDBF=F KetDBF=T FulRan=T
         wScrn=  0.000000 ICntrl=       500 IOpCl=  0 I1Cent=   200000004 NGrid=           0
         NMat0=    1 NMatS0=      1 NMatT0=    0 NMatD0=    1 NMtDS0=    0 NMtDT0=    0
 Petite list used in FoFCou.
 Requested convergence on RMS density matrix=1.00D-08 within 128 cycles.
 Requested convergence on MAX density matrix=1.00D-06.
 Requested convergence on             energy=1.00D-06.
 No special actions if energy rises.
 Integral accuracy reduced to 1.0D-05 until final iterations.
 Initial convergence to 1.0D-05 achieved.  Increase integral accuracy.
 SCF Done:  E(UwB97XD) =  -371.513515734     A.U. after   12 cycles
            NFock= 12  Conv=0.49D-08     -V/T= 2.0039
 <Sx>= 0.0000 <Sy>= 0.0000 <Sz>= 0.0000 <S**2>=-0.0000 S=-0.0000
 <L.S>=  0.00000000000    
 Annihilation of the first spin contaminant:
 S**2 before annihilation    -0.0000,   after    -0.0000
   1 Symmetry operations used in ECPInt.
 ECPInt:  NShTT=    3655 NPrTT=   11788 LenC2=    3441 LenP2D=    8620.
 LDataN:  DoStor=T MaxTD1= 7 Len=  274
 Calling FoFJK, ICntrl=      2127 FMM=F ISym2X=0 I1Cent= 0 IOpClX= 1 NMat=1 NMatS=1 NMatT=0.
 ***** Axes restored to original set *****
 -------------------------------------------------------------------
 Center     Atomic                   Forces (Hartrees/Bohr)
 Number     Number              X              Y              Z
 -------------------------------------------------------------------
      1        7           0.000246830   -0.000057644    0.000000521
      2        6          -0.001780359    0.000192838   -0.000000406
      3        7          -0.000254170    0.000073628   -0.000000003
      4        7           0.000004792   -0.000037928    0.000000002
      5        8           0.000019523   -0.000673065    0.000000089
      6        7           0.001076980    0.000475052   -0.000000270
      7        6           0.000665213   -0.000229190    0.000000231
      8        1           0.000024823    0.000185182   -0.000000222
      9        1          -0.000003633    0.000071127    0.000000059
 -------------------------------------------------------------------
 Cartesian Forces:  Max     0.001780359 RMS     0.000460136

 GradGradGradGradGradGradGradGradGradGradGradGradGradGradGradGradGradGrad
 Berny optimization.
 Using GEDIIS/GDIIS optimizer.
 FormGI is forming the generalized inverse of G from B-inverse, IUseBI=4.
 Internal  Forces:  Max     0.001111813 RMS     0.000363012
 Search for a local minimum.
 Step number   3 out of a maximum of   37
 All quantities printed in internal units (Hartrees-Bohrs-Radians)
 Mixed Optimization -- En-DIIS/RFO-DIIS
 Update second derivatives using D2CorX and points    1    2    3
 DE= -1.02D-04 DEPred=-8.36D-05 R= 1.22D+00
 TightC=F SS=  1.41D+00  RLast= 6.20D-02 DXNew= 5.0454D-01 1.8602D-01
 Trust test= 1.22D+00 RLast= 6.20D-02 DXMaxT set to 3.00D-01
 ITU=  1  1  0
 Use linear search instead of GDIIS.
     Eigenvalues ---    0.00225   0.00234   0.00380   0.00428   0.00933
     Eigenvalues ---    0.01203   0.02242   0.02951   0.14010   0.15746
     Eigenvalues ---    0.16058   0.19425   0.25148   0.33380   0.36101
     Eigenvalues ---    0.40280   0.45848   0.59584   0.84959   0.98355
     Eigenvalues ---    1.89772
 RFO step:  Lambda=-2.09832342D-05 EMin= 2.24717505D-03
 Quartic linear search produced a step of  0.29010.
 Iteration  1 RMS(Cart)=  0.01978417 RMS(Int)=  0.00031534
 Iteration  2 RMS(Cart)=  0.00028246 RMS(Int)=  0.00000101
 Iteration  3 RMS(Cart)=  0.00000000 RMS(Int)=  0.00000101
 Variable       Old X    -DE/DX   Delta X   Delta X   Delta X     New X
                                 (Linear)    (Quad)   (Total)
    R1        2.34936   0.00007  -0.00048   0.00021  -0.00027   2.34909
    R2        1.91780   0.00001   0.00026   0.00019   0.00045   1.91825
    R3        2.72084   0.00111   0.00369   0.00270   0.00639   2.72722
    R4        2.67819  -0.00003  -0.00049  -0.00021  -0.00069   2.67749
    R5        2.05552  -0.00003   0.00002  -0.00002  -0.00000   2.05552
    R6        5.84050   0.00024   0.01305   0.02178   0.03483   5.87533
    R7        2.29263   0.00014  -0.00013   0.00023   0.00010   2.29273
    R8        2.47462  -0.00001  -0.00089   0.00002  -0.00086   2.47376
    R9        2.03969   0.00003  -0.00008   0.00019   0.00011   2.03980
    A1        1.95476   0.00036  -0.00278   0.00337   0.00059   1.95536
    A2        2.47744  -0.00041   0.00372  -0.00386  -0.00014   2.47730
    A3        2.63291   0.00090   0.00460   0.00279   0.00738   2.64029
    A4        2.57087  -0.00060  -0.00359  -0.00198  -0.00557   2.56530
    A5        2.71338  -0.00030  -0.00069  -0.00116  -0.00185   2.71153
    A6        2.45977  -0.00022  -0.00132  -0.00013  -0.00145   2.45831
    A7        1.66084   0.00048   0.00099   0.00195   0.00294   1.66378
    A8        2.85360   0.00063  -0.00272   0.00434   0.00163   2.85523
    A9        2.99516   0.00007   0.00850   0.03089   0.03939   3.03455
   A10        3.14159   0.00000  -0.00000   0.00002   0.00001   3.14160
   A11        3.14160  -0.00000   0.00000  -0.00001  -0.00001   3.14159
    D1       -3.14159  -0.00000  -0.00000  -0.00001  -0.00001   3.14158
    D2        0.00002  -0.00000   0.00000  -0.00007  -0.00006  -0.00005
    D3        0.00000  -0.00000   0.00000  -0.00000  -0.00000  -0.00000
    D4       -3.14158  -0.00000   0.00000  -0.00003  -0.00003   3.14157
    D5        0.00000  -0.00000   0.00000  -0.00001  -0.00001  -0.00001
    D6        0.00000  -0.00000  -0.00000   0.00001   0.00001   0.00001
    D7       -3.14158   0.00000   0.00000  -0.00003  -0.00003   3.14158
         Item               Value     Threshold  Converged?
 Maximum Force            0.001112     0.000450     NO 
 RMS     Force            0.000363     0.000300     NO 
 Maximum Displacement     0.067569     0.001800     NO 
 RMS     Displacement     0.019692     0.001200     NO 
 Predicted change in Energy=-1.582224D-05
 GradGradGradGradGradGradGradGradGradGradGradGradGradGradGradGradGradGrad

                          Input orientation:                          
 ---------------------------------------------------------------------
 Center     Atomic      Atomic             Coordinates (Angstroms)
 Number     Number       Type             X           Y           Z
 ---------------------------------------------------------------------
      1          7           0        0.391222    1.792403    0.000013
      2          6           0        0.661810    0.579124   -0.000005
      3          7           0       -2.806389   -0.561176    0.000006
      4          7           0       -3.755139   -0.029162    0.000013
      5          8           0        2.969930   -0.560353    0.000013
      6          7           0        1.777544   -0.336256   -0.000003
      7          6           0        0.567041   -0.834573   -0.000007
      8          1           0       -0.610066    1.959263   -0.000010
      9          1           0        0.052387   -1.783399   -0.000001
 ---------------------------------------------------------------------
                    Distance matrix (angstroms):
                    1          2          3          4          5
     1  N    0.000000
     2  C    1.243086   0.000000
     3  N    3.970396   3.650847   0.000000
     4  N    4.528842   4.458637   1.087734   0.000000
     5  O    3.490729   2.574068   5.776318   6.746014   0.000000
     6  N    2.540290   1.443185   4.589447   5.541199   1.213262
     7  C    2.632852   1.416869   3.384491   4.396582   2.418485
     8  H    1.015096   1.876820   3.343119   3.720930   4.377765
     9  H    3.591820   2.439859   3.109088   4.192207   3.163526
                    6          7          8          9
     6  N    0.000000
     7  C    1.309059   0.000000
     8  H    3.312112   3.031682   0.000000
     9  H    2.251752   1.079417   3.800837   0.000000
 Stoichiometry    C2H2N4O
 Framework group  C1[X(C2H2N4O)]
 Deg. of freedom    21
 Full point group                 C1      NOp   1
 Largest Abelian subgroup         C1      NOp   1
 Largest concise Abelian subgroup C1      NOp   1
                         Standard orientation:                         
 ---------------------------------------------------------------------
 Center     Atomic      Atomic             Coordinates (Angstroms)
 Number     Number       Type             X           Y           Z
 ---------------------------------------------------------------------
      1          7           0        0.372466    1.792749    0.000008
      2          6           0        0.658107    0.582925   -0.000009
      3          7           0       -2.795655   -0.600378    0.000002
      4          7           0       -3.750943   -0.080193    0.000009
      5          8           0        2.980207   -0.527785    0.000008
      6          7           0        1.785128   -0.318521   -0.000007
      7          6           0        0.580911   -0.831839   -0.000011
      8          1           0       -0.630818    1.947155   -0.000014
      9          1           0        0.078085   -1.786987   -0.000006
 ---------------------------------------------------------------------
 Rotational constants (GHZ):           6.6995551           1.0012592           0.8710755
 Standard basis: def2TZVP (5D, 7F)
 There are   264 symmetry adapted cartesian basis functions of A   symmetry.
 There are   229 symmetry adapted basis functions of A   symmetry.
   229 basis functions,   373 primitive gaussians,   264 cartesian basis functions
    25 alpha electrons       25 beta electrons
       nuclear repulsion energy       235.3269771456 Hartrees.
 NAtoms=    9 NActive=    9 NUniq=    9 SFac= 1.00D+00 NAtFMM=   60 NAOKFM=F Big=F
 Integral buffers will be    131072 words long.
 Raffenetti 2 integral format.
 Two-electron integral symmetry is turned on.
 Nuclear repulsion after empirical dispersion term =      235.3246620066 Hartrees.
 One-electron integrals computed using PRISM.
   1 Symmetry operations used in ECPInt.
 ECPInt:  NShTT=    3655 NPrTT=   11788 LenC2=    3438 LenP2D=    8606.
 LDataN:  DoStor=T MaxTD1= 6 Len=  172
 NBasis=   229 RedAO= T EigKep=  8.27D-05  NBF=   229
 NBsUse=   229 1.00D-06 EigRej= -1.00D+00 NBFU=   229
 Initial guess from the checkpoint file:  "/scratch/23935644/Gau-25580.chk"
 B after Tr=     0.000000   -0.000000    0.000000
         Rot=    1.000000   -0.000001    0.000000    0.000816 Ang=  -0.09 deg.
 Initial guess <Sx>= 0.0000 <Sy>= 0.0000 <Sz>= 0.0000 <S**2>=-0.0000 S=-0.0000
 ExpMin= 9.52D-02 ExpMax= 2.70D+04 ExpMxC= 9.22D+02 IAcc=2 IRadAn=         4 AccDes= 0.00D+00
 Harris functional with IExCor= 4639 and IRadAn=       4 diagonalized for initial guess.
 HarFok:  IExCor= 4639 AccDes= 0.00D+00 IRadAn=         4 IDoV= 1 UseB2=F ITyADJ=14
 ICtDFT=  3500011 ScaDFX=  1.000000  1.000000  1.000000  1.000000
 FoFCou: FMM=F IPFlag=           0 FMFlag=      100000 FMFlg1=           0
         NFxFlg=           0 DoJE=T BraDBF=F KetDBF=T FulRan=T
         wScrn=  0.000000 ICntrl=       500 IOpCl=  0 I1Cent=   200000004 NGrid=           0
         NMat0=    1 NMatS0=      1 NMatT0=    0 NMatD0=    1 NMtDS0=    0 NMtDT0=    0
 Petite list used in FoFCou.
 Requested convergence on RMS density matrix=1.00D-08 within 128 cycles.
 Requested convergence on MAX density matrix=1.00D-06.
 Requested convergence on             energy=1.00D-06.
 No special actions if energy rises.
 Integral accuracy reduced to 1.0D-05 until final iterations.
 Initial convergence to 1.0D-05 achieved.  Increase integral accuracy.
 SCF Done:  E(UwB97XD) =  -371.513537836     A.U. after   12 cycles
            NFock= 12  Conv=0.33D-08     -V/T= 2.0039
 <Sx>= 0.0000 <Sy>= 0.0000 <Sz>= 0.0000 <S**2>=-0.0000 S=-0.0000
 <L.S>=  0.00000000000    
 Annihilation of the first spin contaminant:
 S**2 before annihilation    -0.0000,   after     0.0000
   1 Symmetry operations used in ECPInt.
 ECPInt:  NShTT=    3655 NPrTT=   11788 LenC2=    3438 LenP2D=    8606.
 LDataN:  DoStor=T MaxTD1= 7 Len=  274
 Calling FoFJK, ICntrl=      2127 FMM=F ISym2X=0 I1Cent= 0 IOpClX= 1 NMat=1 NMatS=1 NMatT=0.
 ***** Axes restored to original set *****
 -------------------------------------------------------------------
 Center     Atomic                   Forces (Hartrees/Bohr)
 Number     Number              X              Y              Z
 -------------------------------------------------------------------
      1        7           0.000139787   -0.000249792   -0.000001745
      2        6          -0.000916692   -0.000001769    0.000001133
      3        7          -0.000197009    0.000065516    0.000000005
      4        7           0.000017077   -0.000030532   -0.000000001
      5        8           0.000077591   -0.000096316   -0.000000290
      6        7           0.000511348    0.000311383    0.000001018
      7        6           0.000250183   -0.000228942   -0.000000828
      8        1           0.000212409    0.000101917    0.000000860
      9        1          -0.000094693    0.000128536   -0.000000153
 -------------------------------------------------------------------
 Cartesian Forces:  Max     0.000916692 RMS     0.000238540

 GradGradGradGradGradGradGradGradGradGradGradGradGradGradGradGradGradGrad
 Berny optimization.
 Using GEDIIS/GDIIS optimizer.
 FormGI is forming the generalized inverse of G from B-inverse, IUseBI=4.
 Internal  Forces:  Max     0.000537949 RMS     0.000193077
 Search for a local minimum.
 Step number   4 out of a maximum of   37
 All quantities printed in internal units (Hartrees-Bohrs-Radians)
 Mixed Optimization -- En-DIIS/RFO-DIIS
 Swapping is turned off.
 Update second derivatives using D2CorX and points    1    2    3    4
 DE= -2.21D-05 DEPred=-1.58D-05 R= 1.40D+00
 TightC=F SS=  1.41D+00  RLast= 5.39D-02 DXNew= 5.0454D-01 1.6181D-01
 Trust test= 1.40D+00 RLast= 5.39D-02 DXMaxT set to 3.00D-01
 ITU=  1  1  1  0
     Eigenvalues ---    0.00192   0.00234   0.00382   0.00429   0.00696
     Eigenvalues ---    0.01205   0.02230   0.02951   0.14194   0.15463
     Eigenvalues ---    0.16273   0.18453   0.25444   0.33527   0.36107
     Eigenvalues ---    0.40900   0.46037   0.60379   0.85281   0.98351
     Eigenvalues ---    1.89773
 En-DIIS/RFO-DIIS/Sim-DIIS IScMMF=       -3 using points:     4    3
 RFO step:  Lambda=-1.54289198D-05.
 DidBck=F Rises=F RFO-DIIS coefs:    2.05821   -1.05821
 Iteration  1 RMS(Cart)=  0.02080074 RMS(Int)=  0.00036414
 Iteration  2 RMS(Cart)=  0.00032541 RMS(Int)=  0.00000060
 Iteration  3 RMS(Cart)=  0.00000001 RMS(Int)=  0.00000060
 Variable       Old X    -DE/DX   Delta X   Delta X   Delta X     New X
                                 (Linear)    (Quad)   (Total)
    R1        2.34909  -0.00022  -0.00029  -0.00038  -0.00066   2.34843
    R2        1.91825  -0.00019   0.00048  -0.00076  -0.00028   1.91797
    R3        2.72722   0.00022   0.00676  -0.00272   0.00403   2.73126
    R4        2.67749  -0.00010  -0.00074  -0.00003  -0.00077   2.67673
    R5        2.05552  -0.00003  -0.00000  -0.00002  -0.00002   2.05550
    R6        5.87533   0.00017   0.03685   0.00008   0.03693   5.91226
    R7        2.29273   0.00009   0.00011   0.00002   0.00013   2.29286
    R8        2.47376   0.00030  -0.00091   0.00087  -0.00004   2.47372
    R9        2.03980  -0.00001   0.00012  -0.00011   0.00001   2.03981
    A1        1.95536   0.00026   0.00063   0.00076   0.00138   1.95674
    A2        2.47730  -0.00054  -0.00015  -0.00285  -0.00300   2.47431
    A3        2.64029   0.00017   0.00781  -0.00353   0.00428   2.64457
    A4        2.56530  -0.00000  -0.00589   0.00300  -0.00289   2.56241
    A5        2.71153  -0.00018  -0.00196  -0.00055  -0.00250   2.70903
    A6        2.45831   0.00012  -0.00154   0.00198   0.00044   2.45875
    A7        1.66378   0.00033   0.00311  -0.00009   0.00302   1.66680
    A8        2.85523   0.00044   0.00172   0.00194   0.00367   2.85889
    A9        3.03455   0.00005   0.04168   0.00145   0.04313   3.07767
   A10        3.14160  -0.00000   0.00001  -0.00007  -0.00006   3.14155
   A11        3.14159   0.00000  -0.00001   0.00004   0.00003   3.14162
    D1        3.14158   0.00000  -0.00001   0.00005   0.00004  -3.14156
    D2       -0.00005   0.00000  -0.00007   0.00030   0.00024   0.00019
    D3       -0.00000   0.00000  -0.00000   0.00002   0.00002   0.00002
    D4        3.14157   0.00000  -0.00003   0.00015   0.00012  -3.14150
    D5       -0.00001   0.00000  -0.00001   0.00003   0.00003   0.00002
    D6        0.00001   0.00000   0.00001  -0.00005  -0.00003  -0.00002
    D7        3.14158  -0.00000  -0.00003   0.00012   0.00010  -3.14151
         Item               Value     Threshold  Converged?
 Maximum Force            0.000538     0.000450     NO 
 RMS     Force            0.000193     0.000300     YES
 Maximum Displacement     0.070203     0.001800     NO 
 RMS     Displacement     0.020687     0.001200     NO 
 Predicted change in Energy=-7.739897D-06
 GradGradGradGradGradGradGradGradGradGradGradGradGradGradGradGradGradGrad

                          Input orientation:                          
 ---------------------------------------------------------------------
 Center     Atomic      Atomic             Coordinates (Angstroms)
 Number     Number       Type             X           Y           Z
 ---------------------------------------------------------------------
      1          7           0        0.403239    1.795770   -0.000045
      2          6           0        0.668390    0.581650    0.000034
      3          7           0       -2.821609   -0.548131   -0.000008
      4          7           0       -3.792289   -0.057290   -0.000053
      5          8           0        2.975624   -0.567578   -0.000084
      6          7           0        1.784469   -0.336671    0.000003
      7          6           0        0.572587   -0.831570    0.000053
      8          1           0       -0.596915    1.968411    0.000071
      9          1           0        0.054845   -1.778720    0.000049
 ---------------------------------------------------------------------
                    Distance matrix (angstroms):
                    1          2          3          4          5
     1  N    0.000000
     2  C    1.242735   0.000000
     3  N    3.986668   3.668310   0.000000
     4  N    4.586533   4.506207   1.087724   0.000000
     5  O    3.493219   2.577607   5.797267   6.787123   0.000000
     6  N    2.540689   1.445319   4.610930   5.583751   1.213330
     7  C    2.632792   1.416464   3.406010   4.433018   2.417495
     8  H    1.014945   1.877259   3.358906   3.783368   4.381128
     9  H    3.591428   2.438808   3.128632   4.214707   3.161932
                    6          7          8          9
     6  N    0.000000
     7  C    1.309039   0.000000
     8  H    3.314271   3.034408   0.000000
     9  H    2.251911   1.079421   3.803391   0.000000
 Stoichiometry    C2H2N4O
 Framework group  C1[X(C2H2N4O)]
 Deg. of freedom    21
 Full point group                 C1      NOp   1
 Largest Abelian subgroup         C1      NOp   1
 Largest concise Abelian subgroup C1      NOp   1
                         Standard orientation:                         
 ---------------------------------------------------------------------
 Center     Atomic      Atomic             Coordinates (Angstroms)
 Number     Number       Type             X           Y           Z
 ---------------------------------------------------------------------
      1          7           0        0.391174    1.797175   -0.000030
      2          6           0        0.668185    0.585707    0.000049
      3          7           0       -2.810599   -0.578150    0.000007
      4          7           0       -3.786032   -0.096825   -0.000038
      5          8           0        2.986548   -0.540904   -0.000069
      6          7           0        1.793191   -0.321656    0.000018
      7          6           0        0.586207   -0.828383    0.000068
      8          1           0       -0.610621    1.960028    0.000086
      9          1           0        0.077752   -1.780550    0.000064
 ---------------------------------------------------------------------
 Rotational constants (GHZ):           6.6865095           0.9889258           0.8615097
 Standard basis: def2TZVP (5D, 7F)
 There are   264 symmetry adapted cartesian basis functions of A   symmetry.
 There are   229 symmetry adapted basis functions of A   symmetry.
   229 basis functions,   373 primitive gaussians,   264 cartesian basis functions
    25 alpha electrons       25 beta electrons
       nuclear repulsion energy       234.8901540689 Hartrees.
 NAtoms=    9 NActive=    9 NUniq=    9 SFac= 1.00D+00 NAtFMM=   60 NAOKFM=F Big=F
 Integral buffers will be    131072 words long.
 Raffenetti 2 integral format.
 Two-electron integral symmetry is turned on.
 Nuclear repulsion after empirical dispersion term =      234.8878707037 Hartrees.
 One-electron integrals computed using PRISM.
   1 Symmetry operations used in ECPInt.
 ECPInt:  NShTT=    3655 NPrTT=   11788 LenC2=    3429 LenP2D=    8583.
 LDataN:  DoStor=T MaxTD1= 6 Len=  172
 NBasis=   229 RedAO= T EigKep=  8.28D-05  NBF=   229
 NBsUse=   229 1.00D-06 EigRej= -1.00D+00 NBFU=   229
 Initial guess from the checkpoint file:  "/scratch/23935644/Gau-25580.chk"
 B after Tr=     0.000000    0.000000    0.000000
         Rot=    0.999999    0.000004   -0.000000    0.001091 Ang=   0.13 deg.
 Initial guess <Sx>= 0.0000 <Sy>= 0.0000 <Sz>= 0.0000 <S**2>=-0.0000 S=-0.0000
 ExpMin= 9.52D-02 ExpMax= 2.70D+04 ExpMxC= 9.22D+02 IAcc=2 IRadAn=         4 AccDes= 0.00D+00
 Harris functional with IExCor= 4639 and IRadAn=       4 diagonalized for initial guess.
 HarFok:  IExCor= 4639 AccDes= 0.00D+00 IRadAn=         4 IDoV= 1 UseB2=F ITyADJ=14
 ICtDFT=  3500011 ScaDFX=  1.000000  1.000000  1.000000  1.000000
 FoFCou: FMM=F IPFlag=           0 FMFlag=      100000 FMFlg1=           0
         NFxFlg=           0 DoJE=T BraDBF=F KetDBF=T FulRan=T
         wScrn=  0.000000 ICntrl=       500 IOpCl=  0 I1Cent=   200000004 NGrid=           0
         NMat0=    1 NMatS0=      1 NMatT0=    0 NMatD0=    1 NMtDS0=    0 NMtDT0=    0
 Petite list used in FoFCou.
 Requested convergence on RMS density matrix=1.00D-08 within 128 cycles.
 Requested convergence on MAX density matrix=1.00D-06.
 Requested convergence on             energy=1.00D-06.
 No special actions if energy rises.
 Integral accuracy reduced to 1.0D-05 until final iterations.
 Initial convergence to 1.0D-05 achieved.  Increase integral accuracy.
 SCF Done:  E(UwB97XD) =  -371.513549162     A.U. after   11 cycles
            NFock= 11  Conv=0.74D-08     -V/T= 2.0039
 <Sx>= 0.0000 <Sy>= 0.0000 <Sz>= 0.0000 <S**2>=-0.0000 S=-0.0000
 <L.S>=  0.00000000000    
 Annihilation of the first spin contaminant:
 S**2 before annihilation    -0.0000,   after     0.0000
   1 Symmetry operations used in ECPInt.
 ECPInt:  NShTT=    3655 NPrTT=   11788 LenC2=    3429 LenP2D=    8583.
 LDataN:  DoStor=T MaxTD1= 7 Len=  274
 Calling FoFJK, ICntrl=      2127 FMM=F ISym2X=0 I1Cent= 0 IOpClX= 1 NMat=1 NMatS=1 NMatT=0.
 ***** Axes restored to original set *****
 -------------------------------------------------------------------
 Center     Atomic                   Forces (Hartrees/Bohr)
 Number     Number              X              Y              Z
 -------------------------------------------------------------------
      1        7           0.000002998   -0.000079806    0.000007484
      2        6           0.000039252   -0.000181437   -0.000005289
      3        7          -0.000153271    0.000064206    0.000000004
      4        7           0.000012489   -0.000025704   -0.000000017
      5        8           0.000029623    0.000201306    0.000001061
      6        7          -0.000015921    0.000019611   -0.000003875
      7        6           0.000066275   -0.000154330    0.000003606
      8        1           0.000086325    0.000057945   -0.000003571
      9        1          -0.000067770    0.000098210    0.000000598
 -------------------------------------------------------------------
 Cartesian Forces:  Max     0.000201306 RMS     0.000078101

 GradGradGradGradGradGradGradGradGradGradGradGradGradGradGradGradGradGrad
 Berny optimization.
 Using GEDIIS/GDIIS optimizer.
 FormGI is forming the generalized inverse of G from B-inverse, IUseBI=4.
 Internal  Forces:  Max     0.000241877 RMS     0.000125303
 Search for a local minimum.
 Step number   5 out of a maximum of   37
 All quantities printed in internal units (Hartrees-Bohrs-Radians)
 Mixed Optimization -- En-DIIS/RFO-DIIS
 Swapping is turned off.
 Update second derivatives using D2CorX and points    1    2    3    4    5
 DE= -1.13D-05 DEPred=-7.74D-06 R= 1.46D+00
 TightC=F SS=  1.41D+00  RLast= 5.75D-02 DXNew= 5.0454D-01 1.7254D-01
 Trust test= 1.46D+00 RLast= 5.75D-02 DXMaxT set to 3.00D-01
 ITU=  1  1  1  1  0
     Eigenvalues ---    0.00126   0.00234   0.00383   0.00429   0.00548
     Eigenvalues ---    0.01206   0.02224   0.02950   0.12080   0.15469
     Eigenvalues ---    0.16083   0.21680   0.26375   0.34367   0.36117
     Eigenvalues ---    0.41173   0.45817   0.59578   0.85575   0.98397
     Eigenvalues ---    1.89767
 En-DIIS/RFO-DIIS/Sim-DIIS IScMMF=       -3 using points:     5    4    3
 RFO step:  Lambda=-9.56177906D-06.
 DidBck=F Rises=F RFO-DIIS coefs:    1.71464   -0.41285   -0.30180
 Iteration  1 RMS(Cart)=  0.02022269 RMS(Int)=  0.00038174
 Iteration  2 RMS(Cart)=  0.00034380 RMS(Int)=  0.00000047
 Iteration  3 RMS(Cart)=  0.00000001 RMS(Int)=  0.00000047
 Variable       Old X    -DE/DX   Delta X   Delta X   Delta X     New X
                                 (Linear)    (Quad)   (Total)
[...]
       Occupied  (A) (A) (A) (A) (A) (A) (A) (A) (A) (A) (A) (A)
                 (A) (A) (A) (A) (A) (A) (A) (A) (A) (A) (A) (A)
                 (A)
       Virtual   (A) (A) (A) (A) (A) (A) (A) (A) (A) (A) (A) (A)
                 (A) (A) (A) (A) (A) (A) (A) (A) (A) (A) (A) (A)
                 (A) (A) (A) (A) (A) (A) (A) (A) (A) (A) (A) (A)
                 (A) (A) (A) (A) (A) (A) (A) (A) (A) (A) (A) (A)
                 (A) (A) (A) (A) (A) (A) (A) (A) (A) (A) (A) (A)
                 (A) (A) (A) (A) (A) (A) (A) (A) (A) (A) (A) (A)
                 (A) (A) (A) (A) (A) (A) (A) (A) (A) (A) (A) (A)
                 (A) (A) (A) (A) (A) (A) (A) (A) (A) (A) (A) (A)
                 (A) (A) (A) (A) (A) (A) (A) (A) (A) (A) (A) (A)
                 (A) (A) (A) (A) (A) (A) (A) (A) (A) (A) (A) (A)
                 (A) (A) (A) (A) (A) (A) (A) (A) (A) (A) (A) (A)
                 (A) (A) (A) (A) (A) (A) (A) (A) (A) (A) (A) (A)
                 (A) (A) (A) (A) (A) (A) (A) (A) (A) (A) (A) (A)
                 (A) (A) (A) (A) (A) (A) (A) (A) (A) (A) (A) (A)
                 (A) (A) (A) (A) (A) (A) (A) (A) (A) (A) (A) (A)
                 (A) (A) (A) (A) (A) (A) (A) (A) (A) (A) (A) (A)
                 (A) (A) (A) (A) (A) (A) (A) (A) (A) (A) (A) (A)
 Beta  Orbitals:
       Occupied  (A) (A) (A) (A) (A) (A) (A) (A) (A) (A) (A) (A)
                 (A) (A) (A) (A) (A) (A) (A) (A) (A) (A) (A) (A)
                 (A)
       Virtual   (A) (A) (A) (A) (A) (A) (A) (A) (A) (A) (A) (A)
                 (A) (A) (A) (A) (A) (A) (A) (A) (A) (A) (A) (A)
                 (A) (A) (A) (A) (A) (A) (A) (A) (A) (A) (A) (A)
                 (A) (A) (A) (A) (A) (A) (A) (A) (A) (A) (A) (A)
                 (A) (A) (A) (A) (A) (A) (A) (A) (A) (A) (A) (A)
                 (A) (A) (A) (A) (A) (A) (A) (A) (A) (A) (A) (A)
                 (A) (A) (A) (A) (A) (A) (A) (A) (A) (A) (A) (A)
                 (A) (A) (A) (A) (A) (A) (A) (A) (A) (A) (A) (A)
                 (A) (A) (A) (A) (A) (A) (A) (A) (A) (A) (A) (A)
                 (A) (A) (A) (A) (A) (A) (A) (A) (A) (A) (A) (A)
                 (A) (A) (A) (A) (A) (A) (A) (A) (A) (A) (A) (A)
                 (A) (A) (A) (A) (A) (A) (A) (A) (A) (A) (A) (A)
                 (A) (A) (A) (A) (A) (A) (A) (A) (A) (A) (A) (A)
                 (A) (A) (A) (A) (A) (A) (A) (A) (A) (A) (A) (A)
                 (A) (A) (A) (A) (A) (A) (A) (A) (A) (A) (A) (A)
                 (A) (A) (A) (A) (A) (A) (A) (A) (A) (A) (A) (A)
                 (A) (A) (A) (A) (A) (A) (A) (A) (A) (A) (A) (A)
 The electronic state is 1-A.
 Alpha  occ. eigenvalues --  -19.28266 -14.62174 -14.55660 -14.55447 -14.43172
 Alpha  occ. eigenvalues --  -10.41165 -10.37972  -1.28061  -1.25377  -1.11596
 Alpha  occ. eigenvalues --   -1.01319  -0.74334  -0.68831  -0.66647  -0.64017
 Alpha  occ. eigenvalues --   -0.61886  -0.59843  -0.57913  -0.57873  -0.54854
 Alpha  occ. eigenvalues --   -0.54178  -0.45571  -0.40267  -0.34977  -0.34463
 Alpha virt. eigenvalues --    0.01380   0.03402   0.03805   0.09437   0.12194
 Alpha virt. eigenvalues --    0.12501   0.15263   0.16564   0.22291   0.25422
 Alpha virt. eigenvalues --    0.26190   0.28768   0.30815   0.32719   0.34656
 Alpha virt. eigenvalues --    0.35166   0.35975   0.36438   0.37369   0.40232
 Alpha virt. eigenvalues --    0.41287   0.43578   0.45357   0.46266   0.50115
 Alpha virt. eigenvalues --    0.51753   0.52170   0.53355   0.53972   0.56202
 Alpha virt. eigenvalues --    0.58666   0.61364   0.62865   0.63083   0.64218
 Alpha virt. eigenvalues --    0.68290   0.69813   0.72786   0.74495   0.81589
 Alpha virt. eigenvalues --    0.81949   0.84020   0.85485   0.89037   0.89446
 Alpha virt. eigenvalues --    0.90129   0.93365   1.03820   1.05948   1.06714
 Alpha virt. eigenvalues --    1.12434   1.15989   1.16455   1.19370   1.24044
 Alpha virt. eigenvalues --    1.24434   1.27723   1.32972   1.33210   1.33395
 Alpha virt. eigenvalues --    1.36567   1.41800   1.42405   1.47367   1.50252
 Alpha virt. eigenvalues --    1.52698   1.55098   1.59362   1.61006   1.66506
 Alpha virt. eigenvalues --    1.68762   1.71924   1.72129   1.73544   1.74525
 Alpha virt. eigenvalues --    1.80922   1.81693   1.85479   1.92364   1.94435
 Alpha virt. eigenvalues --    2.02400   2.02592   2.03395   2.03506   2.08454
 Alpha virt. eigenvalues --    2.08659   2.11903   2.13982   2.16140   2.20109
 Alpha virt. eigenvalues --    2.20865   2.25947   2.32922   2.34072   2.36619
 Alpha virt. eigenvalues --    2.40274   2.46318   2.49857   2.51302   2.55670
 Alpha virt. eigenvalues --    2.56178   2.64031   2.65846   2.71136   2.72593
 Alpha virt. eigenvalues --    2.75846   2.83689   2.86216   2.87375   2.90408
 Alpha virt. eigenvalues --    2.91951   2.95083   3.02414   3.06596   3.08289
 Alpha virt. eigenvalues --    3.09743   3.13414   3.17554   3.19773   3.28156
 Alpha virt. eigenvalues --    3.31150   3.33189   3.35130   3.44676   3.52759
 Alpha virt. eigenvalues --    3.53006   3.53907   3.55337   3.55727   3.66186
 Alpha virt. eigenvalues --    3.66205   3.68347   3.68386   3.69951   3.71106
 Alpha virt. eigenvalues --    3.84728   3.89585   4.02072   4.08163   4.15283
 Alpha virt. eigenvalues --    4.15292   4.21644   4.24040   4.24865   4.25378
 Alpha virt. eigenvalues --    4.29175   4.41750   4.41989   4.44532   4.47598
 Alpha virt. eigenvalues --    4.55094   4.55389   4.56586   4.57865   4.59012
 Alpha virt. eigenvalues --    4.61125   4.71047   4.72485   4.74640   4.76869
 Alpha virt. eigenvalues --    4.81647   4.84606   4.89046   4.97664   5.00130
 Alpha virt. eigenvalues --    5.00139   5.02871   5.07431   5.07501   5.08343
 Alpha virt. eigenvalues --    5.08385   5.15255   5.20744   5.24860   5.24901
 Alpha virt. eigenvalues --    5.34488   5.48025   5.54944   5.60544   5.69693
 Alpha virt. eigenvalues --    5.77433   5.79124   5.87383   5.96584   6.08468
 Alpha virt. eigenvalues --    6.26262   6.34498   6.35379   6.36845   6.38381
 Alpha virt. eigenvalues --    6.59607   6.60574   6.73620   6.99431   7.21690
 Alpha virt. eigenvalues --    7.31620   7.56902  22.53783  23.38597  31.31662
 Alpha virt. eigenvalues --   32.15603  32.23558  32.69872  44.25550
  Beta  occ. eigenvalues --  -19.28266 -14.62174 -14.55660 -14.55447 -14.43172
  Beta  occ. eigenvalues --  -10.41165 -10.37972  -1.28061  -1.25377  -1.11596
  Beta  occ. eigenvalues --   -1.01319  -0.74334  -0.68831  -0.66647  -0.64017
  Beta  occ. eigenvalues --   -0.61886  -0.59843  -0.57913  -0.57873  -0.54854
  Beta  occ. eigenvalues --   -0.54178  -0.45571  -0.40267  -0.34977  -0.34463
  Beta virt. eigenvalues --    0.01380   0.03402   0.03805   0.09437   0.12194
  Beta virt. eigenvalues --    0.12501   0.15263   0.16564   0.22291   0.25422
  Beta virt. eigenvalues --    0.26190   0.28768   0.30815   0.32719   0.34656
  Beta virt. eigenvalues --    0.35166   0.35975   0.36438   0.37369   0.40232
  Beta virt. eigenvalues --    0.41287   0.43578   0.45357   0.46266   0.50115
  Beta virt. eigenvalues --    0.51753   0.52170   0.53355   0.53972   0.56202
  Beta virt. eigenvalues --    0.58666   0.61364   0.62865   0.63083   0.64218
  Beta virt. eigenvalues --    0.68290   0.69813   0.72786   0.74495   0.81589
  Beta virt. eigenvalues --    0.81949   0.84020   0.85485   0.89037   0.89446
  Beta virt. eigenvalues --    0.90129   0.93365   1.03820   1.05948   1.06714
  Beta virt. eigenvalues --    1.12434   1.15989   1.16455   1.19370   1.24044
  Beta virt. eigenvalues --    1.24434   1.27723   1.32972   1.33210   1.33395
  Beta virt. eigenvalues --    1.36567   1.41800   1.42405   1.47367   1.50252
  Beta virt. eigenvalues --    1.52698   1.55098   1.59362   1.61006   1.66506
  Beta virt. eigenvalues --    1.68762   1.71924   1.72129   1.73544   1.74525
  Beta virt. eigenvalues --    1.80922   1.81693   1.85479   1.92364   1.94435
  Beta virt. eigenvalues --    2.02400   2.02592   2.03395   2.03506   2.08454
  Beta virt. eigenvalues --    2.08659   2.11903   2.13982   2.16140   2.20109
  Beta virt. eigenvalues --    2.20865   2.25947   2.32922   2.34072   2.36619
  Beta virt. eigenvalues --    2.40274   2.46318   2.49857   2.51302   2.55670
  Beta virt. eigenvalues --    2.56178   2.64031   2.65846   2.71136   2.72593
  Beta virt. eigenvalues --    2.75846   2.83689   2.86216   2.87375   2.90408
  Beta virt. eigenvalues --    2.91951   2.95083   3.02414   3.06596   3.08289
  Beta virt. eigenvalues --    3.09743   3.13414   3.17554   3.19773   3.28156
  Beta virt. eigenvalues --    3.31150   3.33189   3.35130   3.44676   3.52759
  Beta virt. eigenvalues --    3.53006   3.53907   3.55337   3.55727   3.66186
  Beta virt. eigenvalues --    3.66205   3.68347   3.68386   3.69951   3.71106
  Beta virt. eigenvalues --    3.84728   3.89585   4.02072   4.08163   4.15283
  Beta virt. eigenvalues --    4.15292   4.21644   4.24040   4.24865   4.25378
  Beta virt. eigenvalues --    4.29175   4.41750   4.41989   4.44532   4.47598
  Beta virt. eigenvalues --    4.55094   4.55389   4.56586   4.57865   4.59012
  Beta virt. eigenvalues --    4.61125   4.71047   4.72485   4.74640   4.76869
  Beta virt. eigenvalues --    4.81647   4.84606   4.89046   4.97664   5.00130
  Beta virt. eigenvalues --    5.00139   5.02871   5.07431   5.07501   5.08343
  Beta virt. eigenvalues --    5.08385   5.15255   5.20744   5.24860   5.24901
  Beta virt. eigenvalues --    5.34488   5.48025   5.54944   5.60544   5.69693
  Beta virt. eigenvalues --    5.77433   5.79124   5.87383   5.96584   6.08468
  Beta virt. eigenvalues --    6.26262   6.34498   6.35379   6.36845   6.38381
  Beta virt. eigenvalues --    6.59607   6.60574   6.73620   6.99431   7.21690
  Beta virt. eigenvalues --    7.31620   7.56902  22.53783  23.38597  31.31662
  Beta virt. eigenvalues --   32.15603  32.23558  32.69872  44.25550
          Condensed to atoms (all electrons):
               1          2          3          4          5          6
     1  N    6.427101   0.677293  -0.000309   0.000001   0.000271  -0.032254
     2  C    0.677293   4.874547  -0.004059  -0.000080  -0.028274   0.253518
     3  N   -0.000309  -0.004059   6.330663   0.665780  -0.000002  -0.000052
     4  N    0.000001  -0.000080   0.665780   6.334488   0.000000  -0.000005
     5  O    0.000271  -0.028274  -0.000002   0.000000   8.122633   0.330942
     6  N   -0.032254   0.253518  -0.000052  -0.000005   0.330942   5.900541
     7  C   -0.079285   0.189266   0.000788   0.000014  -0.054122   0.327200
     8  H    0.341300  -0.050865   0.002786   0.000049  -0.000681   0.010064
     9  H    0.002485  -0.000539   0.002267   0.000005   0.001057  -0.014205
               7          8          9
     1  N   -0.079285   0.341300   0.002485
     2  C    0.189266  -0.050865  -0.000539
     3  N    0.000788   0.002786   0.002267
     4  N    0.000014   0.000049   0.000005
     5  O   -0.054122  -0.000681   0.001057
     6  N    0.327200   0.010064  -0.014205
     7  C    5.306966  -0.025755   0.360104
     8  H   -0.025755   0.489554   0.001232
     9  H    0.360104   0.001232   0.461637
          Atomic-Atomic Spin Densities.
               1          2          3          4          5          6
     1  N   -0.000000   0.000000  -0.000000   0.000000   0.000000   0.000000
     2  C    0.000000  -0.000000   0.000000   0.000000   0.000000   0.000000
     3  N   -0.000000   0.000000   0.000000  -0.000000  -0.000000   0.000000
     4  N    0.000000   0.000000  -0.000000   0.000000   0.000000   0.000000
     5  O    0.000000   0.000000  -0.000000   0.000000  -0.000000   0.000000
     6  N    0.000000   0.000000   0.000000   0.000000   0.000000   0.000000
     7  C    0.000000   0.000000  -0.000000  -0.000000  -0.000000  -0.000000
     8  H   -0.000000   0.000000  -0.000000   0.000000   0.000000  -0.000000
     9  H    0.000000  -0.000000  -0.000000   0.000000   0.000000   0.000000
               7          8          9
     1  N    0.000000  -0.000000   0.000000
     2  C    0.000000   0.000000  -0.000000
     3  N   -0.000000  -0.000000  -0.000000
     4  N   -0.000000   0.000000   0.000000
     5  O   -0.000000   0.000000   0.000000
     6  N   -0.000000  -0.000000   0.000000
     7  C    0.000000  -0.000000   0.000000
     8  H   -0.000000   0.000000  -0.000000
     9  H    0.000000  -0.000000   0.000000
 Mulliken charges and spin densities:
               1          2
     1  N   -0.336603  -0.000000
     2  C    0.089192  -0.000000
     3  N    0.002138   0.000000
     4  N   -0.000252  -0.000000
     5  O   -0.371824   0.000000
     6  N    0.224251   0.000000
     7  C   -0.025176   0.000000
     8  H    0.232316   0.000000
     9  H    0.185958   0.000000
 Sum of Mulliken charges =  -0.00000  -0.00000
 Mulliken charges and spin densities with hydrogens summed into heavy atoms:
               1          2
     1  N   -0.104287  -0.000000
     2  C    0.089192  -0.000000
     3  N    0.002138   0.000000
     4  N   -0.000252  -0.000000
     5  O   -0.371824   0.000000
     6  N    0.224251   0.000000
     7  C    0.160781   0.000000
 Electronic spatial extent (au):  <R**2>=           1187.8617
 Charge=             -0.0000 electrons
 Dipole moment (field-independent basis, Debye):
    X=             -3.9706    Y=             -2.4527    Z=             -0.0303  Tot=              4.6672
 Quadrupole moment (field-independent basis, Debye-Ang):
   XX=            -48.6910   YY=            -39.5726   ZZ=            -38.1601
   XY=             -1.6473   XZ=             -0.0203   YZ=             -0.0280
 Traceless Quadrupole moment (field-independent basis, Debye-Ang):
   XX=             -6.5498   YY=              2.5686   ZZ=              3.9811
   XY=             -1.6473   XZ=             -0.0203   YZ=             -0.0280
 Octapole moment (field-independent basis, Debye-Ang**2):
  XXX=            -29.8558  YYY=            -18.4063  ZZZ=              0.0273  XYY=             -9.2409
  XXY=              4.3416  XXZ=             -0.1240  XZZ=              0.2710  YZZ=             -1.6241
  YYZ=             -0.0746  XYZ=              0.0319
 Hexadecapole moment (field-independent basis, Debye-Ang**3):
 XXXX=          -1398.9154 YYYY=           -226.9850 ZZZZ=            -34.7949 XXXY=             17.5024
 XXXZ=             -0.0863 YYYX=            -19.3647 YYYZ=             -0.1262 ZZZX=              0.0389
 ZZZY=             -0.0430 XXYY=           -237.9311 XXZZ=           -201.3335 YYZZ=            -43.9627
 XXYZ=              0.0156 YYXZ=              0.0311 ZZXY=             -1.4947
 N-N= 2.340247829165D+02 E-N=-1.337194564344D+03  KE= 3.700659494698D+02
                          Isotropic Fermi Contact Couplings
        Atom                 a.u.       MegaHertz       Gauss      10(-4) cm-1
     1  N(14)              0.00000       0.00000       0.00000       0.00000
     2  C(13)              0.00000       0.00000       0.00000       0.00000
     3  N(14)             -0.00000      -0.00000      -0.00000      -0.00000
     4  N(14)             -0.00000      -0.00000      -0.00000      -0.00000
     5  O(17)             -0.00000       0.00000       0.00000       0.00000
     6  N(14)             -0.00000      -0.00000      -0.00000      -0.00000
     7  C(13)              0.00000       0.00000       0.00000       0.00000
     8  H(1)              -0.00000      -0.00000      -0.00000      -0.00000
     9  H(1)               0.00000       0.00000       0.00000       0.00000
 --------------------------------------------------------
       Center         ----  Spin Dipole Couplings  ----
                      3XX-RR        3YY-RR        3ZZ-RR
 --------------------------------------------------------
     1   Atom        0.000000     -0.000000      0.000000
     2   Atom        0.000000     -0.000000      0.000000
     3   Atom        0.000000     -0.000000     -0.000000
     4   Atom        0.000000     -0.000000     -0.000000
     5   Atom        0.000000     -0.000000      0.000000
     6   Atom        0.000000      0.000000     -0.000000
     7   Atom       -0.000000     -0.000000      0.000000
     8   Atom       -0.000000      0.000000     -0.000000
     9   Atom       -0.000000      0.000000     -0.000000
 --------------------------------------------------------
                        XY            XZ            YZ
 --------------------------------------------------------
     1   Atom        0.000000      0.000000      0.000000
     2   Atom        0.000000     -0.000000     -0.000000
     3   Atom       -0.000000     -0.000000      0.000000
     4   Atom       -0.000000      0.000000      0.000000
     5   Atom       -0.000000      0.000000      0.000000
     6   Atom        0.000000      0.000000      0.000000
     7   Atom       -0.000000      0.000000     -0.000000
     8   Atom       -0.000000     -0.000000      0.000000
     9   Atom        0.000000      0.000000      0.000000
 --------------------------------------------------------


 ---------------------------------------------------------------------------------
              Anisotropic Spin Dipole Couplings in Principal Axis System
 ---------------------------------------------------------------------------------

       Atom             a.u.   MegaHertz   Gauss  10(-4) cm-1        Axes

              Baa    -0.0000    -0.000    -0.000    -0.000 -0.3422  0.9396 -0.0012
     1 N(14)  Bbb     0.0000     0.000     0.000     0.000  0.9159  0.3333 -0.2238
              Bcc     0.0000     0.000     0.000     0.000  0.2099  0.0777  0.9746
 
              Baa    -0.0000    -0.000    -0.000    -0.000 -0.3847  0.9230  0.0012
     2 C(13)  Bbb     0.0000     0.000     0.000     0.000  0.9229  0.3846  0.0177
              Bcc     0.0000     0.000     0.000     0.000 -0.0159 -0.0079  0.9998
 
              Baa    -0.0000    -0.000    -0.000    -0.000 -0.0095 -0.0871  0.9962
     3 N(14)  Bbb    -0.0000    -0.000    -0.000    -0.000  0.1347  0.9870  0.0876
              Bcc     0.0000     0.000     0.000     0.000  0.9908 -0.1350 -0.0024
 
              Baa    -0.0000    -0.000    -0.000    -0.000 -0.0500 -0.2941  0.9545
     4 N(14)  Bbb    -0.0000    -0.000    -0.000    -0.000  0.1475  0.9430  0.2983
              Bcc     0.0000     0.000     0.000     0.000  0.9878 -0.1557  0.0037
 
              Baa    -0.0000     0.000     0.000     0.000  0.5115  0.8590 -0.0231
     5 O(17)  Bbb     0.0000    -0.000    -0.000    -0.000  0.0224  0.0136  0.9997
              Bcc     0.0000    -0.000    -0.000    -0.000  0.8590 -0.5119 -0.0123
 
              Baa    -0.0000    -0.000    -0.000    -0.000 -0.3132  0.3916  0.8652
     6 N(14)  Bbb    -0.0000    -0.000    -0.000    -0.000 -0.4872  0.7158 -0.5003
              Bcc     0.0000     0.000     0.000     0.000  0.8152  0.5782  0.0334
 
              Baa    -0.0000    -0.000    -0.000    -0.000  0.2893  0.9572 -0.0012
     7 C(13)  Bbb    -0.0000    -0.000    -0.000    -0.000  0.9571 -0.2893 -0.0176
              Bcc     0.0000     0.000     0.000     0.000  0.0172 -0.0040  0.9998
 
              Baa    -0.0000    -0.000    -0.000    -0.000  0.9783  0.1992  0.0565
     8 H(1)   Bbb    -0.0000    -0.000    -0.000    -0.000 -0.0484 -0.0454  0.9978
              Bcc     0.0000     0.000     0.000     0.000 -0.2013  0.9789  0.0348
 
              Baa    -0.0000    -0.000    -0.000    -0.000  0.8737 -0.4845 -0.0426
     9 H(1)   Bbb    -0.0000    -0.000    -0.000    -0.000  0.0237 -0.0450  0.9987
              Bcc     0.0000     0.000     0.000     0.000  0.4858  0.8736  0.0279
 

 ---------------------------------------------------------------------------------



 QUANTUM MECHANICS IS BOHRING -- M.S. GORDON
 Error termination request processed by link 9999.
 Error termination via Lnk1e in /software/kemi/g16/avx2/g16/l9999.exe at Wed Jun 23 12:09:01 2021.
 Job cpu time:       0 days  7 hours  7 minutes  7.0 seconds.
 Elapsed time:       0 days  1 hours 48 minutes 45.4 seconds.
 File lengths (MBytes):  RWF=     63 Int=      0 D2E=      0 Chk=      6 Scr=      1
