      -----------------------------------------------------------      
     |                   =====================                   |     
     |                           x T B                           |     
     |                   =====================                   |     
     |                         S. Grimme                         |     
     |          Mulliken Center for Theoretical Chemistry        |     
     |                    University of Bonn                     |     
     |                 Version 6.1.4 (SAW190525)                 |     
      -----------------------------------------------------------      

   This program is distributed in the hope that it will be useful,
   but WITHOUT ANY WARRANTY; without even the implied warranty of
   MERCHANTABILITY or FITNESS FOR A PARTICULAR PURPOSE.
   
   FOR NON-COMMERCIAL, ACADEMIA USE ONLY.
   
   Cite this work as:
   S. Grimme, C. Bannwarth, P. Shushkov, J. Comput. Theory Chem., 2017,
   13, 1989-2009. DOI: 10.1021/acs.jctc.7b00118
   C. Bannwarth, S. Ehlert and S. Grimme., J. Comput. Theory Chem., 2019,
   just accepted. DOI: 10.1021/acs.jctc.8b01176
   
   for sTDA-xTB:
   S. Grimme and C. Bannwarth, J. Chem. Phys., 2016, 145, 054103.
   DOI: 10.1063/1.4959605
   
   in the mass-spec context:
   V. Asgeirsson, C. Bauer and S. Grimme, Chem. Sci., 2017, 8, 4879.
   DOI: 10.1039/c7sc00601b
   
   for metadynamics refer to:
   S. Grimme, J. Chem. Theory Comput. Article ASAP, 2019,
   DOI: 10.1021/acs.jctc.9b00143
   
   with help from (in alphabetical order)
   C. Bannwarth, F. Bohle, G. Brandenburg, E. Caldeweyher, M. Checinski,
   S. Dohm, S. Ehlert, S. Ehrlich, F. März, H. Neugebauer, J. Pisarek,
   P. Pracht, P. Shushkov, and S. Spicher.
   
 * started run on 2021/06/02 at 10:00:08.648     

           -------------------------------------------------
          |                Calculation Setup                |
           -------------------------------------------------

          program call               : /groups/kemi/koerstz/opt/xtb/6.1/bin/xtb path_point_12.xyz --gfn2 --acc 0.2 --chrg 0
          hostname                   : node305
          coordinate file            : path_point_12.xyz
          omp threads                :                     1
          number of atoms            :                     9
          number of electrons        :                    36
          charge                     :                     0
          spin                       :                   0.0
          first test random number   :      0.79096147009717


########################################################################
# WARNING! Please study the warnings concerning your input carefully
#  - XTBPATH is not set, using XTBHOME instead
########################################################################

           ------------------------------------------------- 
          |                 G F N 2 - x T B                 |
          | Geometry, Frequencies, Noncovalent interactions |
          |            JCTC 2018 parametrisation            |
           ------------------------------------------------- 
             k(s)              :                1.8500
             k(p)              :                2.2300
             k(d)              :                2.2300
             k(f)              :                2.0000
             kEN (H0ij)        :               -2.0000
             D4 a1             :                0.5200
             D4 a2             :                5.0000
             D4 s6             :                1.0000
             D4 s8             :                2.7000
             D4 s9             :                5.0000
             alphaj            :                2.0000

  Z AO/shell   Hii/eV     exponent
  1     Wed Apr 25 08:07:45 CEST 2018   EN: 2.200 GM2: 0.406  GM3: 0.0800  RAES: 1.40
     1s    -10.707211    1.230000
  6     Wed Apr 25 08:07:45 CEST 2018   EN: 2.550 GM2: 0.538  GM3: 0.1500  RAES: 3.00
     2s    -13.970922    2.096432
     2p    -10.063292    1.800000
  7     Wed Apr 25 08:07:45 CEST 2018   EN: 3.040 GM2: 0.461  GM3:-0.0640  RAES: 1.90
     2s    -16.686243    2.339881
     2p    -12.523956    2.014332
  8     Wed Apr 25 08:07:45 CEST 2018   EN: 3.440 GM2: 0.452  GM3:-0.0517  RAES: 1.80
     2s    -20.229985    2.439742
     2p    -15.503117    2.137023


            Z     q(EN)     CN     RAES       Cart. coordinates
     1  N   5.0   -0.42    2.02    1.90    -0.93901    -0.32551    -2.43452
     2  C   4.0    0.31    3.01    3.02    -0.84082    -1.67418    -0.40751
     3  N   5.0   -0.15    2.02    1.90    -2.92108    -2.13889     0.95078
     4  N   5.0   -0.15    1.00    1.90    -4.97603    -2.48360     1.43973
     5  O   6.0   -0.10    1.00    1.80     5.78767    -2.57750    -0.58031
     6  N   5.0   -0.15    2.01    1.90     3.53922    -2.49616    -0.47990
     7  C   4.0    0.14    3.01    3.02     1.54247    -2.37577     0.79595
     8  H   1.0    0.33    1.00    1.43    -2.66108     0.37258    -2.93452
     9  H   1.0    0.18    1.00    1.43     1.42345    -2.95316     2.74761

           ------------------------------------------------- 
          |        Self-Consistent Charge Iterations        |
           ------------------------------------------------- 
q/qsh data taken from xtbrestart
CAMM data taken from xtbrestart

          ...................................................
          :                      SETUP                      :
          :.................................................:
          :  # basis functions                  30          :
          :  # atomic orbitals                  30          :
          :  # shells                           16          :
          :  # electrons                        36          :
          :  max. iterations                   250          :
          :  Hamiltonian                  GFN2-xTB          :
          :  restarted?                       true          :
          :  GBSA solvation                  false          :
          :  PC potential                    false          :
          :  electronic temp.          300.0000000     K    :
          :  accuracy                    0.2000000          :
          :  -> integral cutoff          0.3198970E+02      :
          :  -> integral neglect         0.2000000E-08      :
          :  -> SCF convergence          0.2000000E-06 Eh   :
          :  -> wf. convergence          0.2000000E-04 e    :
          :  Broyden damping             0.4000000          :
          ...................................................

 iter      E             dE          RMSdq      gap      omega  full diag
   1    -21.0358454 -0.210358E+02  0.190E+00    0.18       0.0  T
   2    -20.7917485  0.244097E+00  0.526E+00    1.81       1.0  T
   3    -20.9099207 -0.118172E+00  0.373E+00    0.51       1.0  T
   4    -21.0254468 -0.115526E+00  0.214E+00    0.21       1.0  T
   5    -21.0820126 -0.565658E-01  0.285E-01    0.16       1.0  T
   6    -21.0824479 -0.435267E-03  0.205E-01    0.17       1.0  T
   7    -21.0829962 -0.548334E-03  0.486E-02    0.16       1.0  T
   8    -21.0830080 -0.117539E-04  0.316E-02    0.17       1.1  T
   9    -21.0830046  0.339645E-05  0.341E-02    0.17       1.0  T
  10    -21.0830026  0.196048E-05  0.354E-02    0.16       1.0  T
  11    -21.0830188 -0.161484E-04  0.184E-03    0.16      18.2  T
  12    -21.0830153  0.342126E-05  0.163E-02    0.16       2.0  T
  13    -21.0830186 -0.321552E-05  0.425E-03    0.16       7.8  T
  14    -21.0830187 -0.163866E-06  0.211E-03    0.16      15.8  T
  15    -21.0830188 -0.541728E-07  0.254E-04    0.16     131.4  T
  16    -21.0830188  0.522815E-08  0.682E-04    0.16      48.9  T
  17    -21.0830188 -0.582924E-08  0.122E-04    0.16     272.3  T
  18    -21.0830188 -0.499689E-10  0.105E-04    0.16     317.3  T

   *** convergence criteria satisfied after 18 iterations ***

         #    Occupation            Energy/Eh            Energy/eV
      -------------------------------------------------------------
         1        2.0000           -0.7554483             -20.5568
       ...           ...                  ...                  ...
        12        2.0000           -0.5543853             -15.0856
        13        2.0000           -0.5158080             -14.0358
        14        2.0000           -0.5054595             -13.7543
        15        2.0000           -0.5001329             -13.6093
        16        2.0000           -0.4291916             -11.6789
        17        2.0000           -0.4244850             -11.5508
        18        1.9208           -0.3547868              -9.6542 (HOMO)
        19        0.0792           -0.3487285              -9.4894 (LUMO)
        20                         -0.3318288              -9.0295
        21                         -0.2763471              -7.5198
        22                         -0.1807407              -4.9182
        23                          0.0214325               0.5832
       ...                                ...                  ...
        30                          0.8739161              23.7805
      -------------------------------------------------------------
                  HL-Gap            0.0060582 Eh            0.1649 eV
             Fermi-level           -0.3517576 Eh           -9.5718 eV

 SCC (total)                   0 d,  0 h,  0 min,  0.008 sec
 SCC setup                      ...        0 min,  0.000 sec (  1.484%)
 Dispersion                     ...        0 min,  0.000 sec (  0.712%)
 integral evaluation            ...        0 min,  0.001 sec ( 12.726%)
 zeroth order Hamiltonian       ...        0 min,  0.000 sec (  0.396%)
 iterations                     ...        0 min,  0.005 sec ( 60.215%)
 molecular gradient             ...        0 min,  0.002 sec ( 22.235%)
 printout                       ...        0 min,  0.000 sec (  1.843%)

         :::::::::::::::::::::::::::::::::::::::::::::::::::::
         ::                     SUMMARY                     ::
         :::::::::::::::::::::::::::::::::::::::::::::::::::::
         :: total energy              -20.829122445257 Eh   ::
         :: gradient norm               0.051357241828 Eh/α ::
         :: HOMO-LUMO gap               0.164852936711 eV   ::
         ::.................................................::
         :: SCC energy                -21.083018777163 Eh   ::
         :: -> isotropic ES             0.025375325146 Eh   ::
         :: -> anisotropic ES           0.004600482940 Eh   ::
         :: -> anisotropic XC           0.024418702997 Eh   ::
         :: -> dispersion              -0.005515425571 Eh   ::
         :: repulsion energy            0.253895578053 Eh   ::
         :: add. restraining            0.000000000000 Eh   ::
         :::::::::::::::::::::::::::::::::::::::::::::::::::::

           -------------------------------------------------
          |                Property Printout                |
           -------------------------------------------------

    * Orbital Energies and Occupations

         #    Occupation            Energy/Eh            Energy/eV
      -------------------------------------------------------------
         1        2.0000           -0.7554483             -20.5568
       ...           ...                  ...                  ...
         6        2.0000           -0.6325186             -17.2117
         7        2.0000           -0.6118572             -16.6495
         8        2.0000           -0.6077900             -16.5388
         9        2.0000           -0.5981787             -16.2773
        10        2.0000           -0.5893352             -16.0366
        11        2.0000           -0.5702987             -15.5186
        12        2.0000           -0.5543853             -15.0856
        13        2.0000           -0.5158080             -14.0358
        14        2.0000           -0.5054595             -13.7543
        15        2.0000           -0.5001329             -13.6093
        16        2.0000           -0.4291916             -11.6789
        17        2.0000           -0.4244850             -11.5508
        18        1.9208           -0.3547868              -9.6542 (HOMO)
        19        0.0792           -0.3487285              -9.4894 (LUMO)
        20                         -0.3318288              -9.0295
        21                         -0.2763471              -7.5198
        22                         -0.1807407              -4.9182
        23                          0.0214325               0.5832
        24                          0.0584706               1.5911
        25                          0.1747009               4.7539
        26                          0.1930561               5.2533
        27                          0.3237164               8.8088
        28                          0.4604987              12.5308
        29                          0.7350970              20.0030
        30                          0.8739161              23.7805
      -------------------------------------------------------------
                  HL-Gap            0.0060582 Eh            0.1649 eV
             Fermi-level           -0.3517576 Eh           -9.5718 eV

   #   Z        covCN         q      C6AA      α(0)
   1   7 N      1.789    -0.319    29.108     7.991
   2   6 C      2.814     0.142    24.894     8.175
   3   7 N      1.914     0.127    19.690     6.579
   4   7 N      0.984    -0.107    22.964     6.892
   5   8 O      0.924    -0.250    18.872     5.826
   6   7 N      1.845     0.206    18.432     6.363
   7   6 C      2.831    -0.036    28.877     8.806
   8   1 H      0.860     0.153     1.378     1.839
   9   1 H      0.926     0.083     1.945     2.181

 Mol. C6AA /au·bohr⁶  :       1305.234579
 Mol. C8AA /au·bohr⁸  :      29834.317529
 Mol. α(0) /au        :         54.651795


Wiberg/Mayer (AO) data.
largest (>0.10) Wiberg bond orders for each atom
          total WBO             WBO to atom ...
     1  N   3.079        C    2 1.518    H    8 0.945    N    4 0.153    N    6 0.140    O    5 0.132    N    3 0.125
     2  C   3.929        N    1 1.518    N    3 1.145    C    7 1.044    N    4 0.132
     3  N   3.695        N    4 2.253    C    2 1.145    N    1 0.125
     4  N   2.766        N    3 2.253    N    6 0.170    N    1 0.153    C    2 0.132
     5  O   2.031        N    6 1.512    C    7 0.265    N    1 0.132
     6  N   3.581        C    7 1.632    O    5 1.512    N    4 0.170    N    1 0.140
     7  C   3.946        N    6 1.632    C    2 1.044    H    9 0.905    O    5 0.265
     8  H   0.976        N    1 0.945
     9  H   0.984        C    7 0.905

molecular dipole:
                 x           y           z       tot (Debye)
 q only:       -0.724      -0.114       0.484
   full:       -0.923      -0.125       0.733       3.013
molecular quadrupole (traceless):
                xx          xy          yy          xz          yz          zz
 q only:       -6.545       1.678       3.679       2.549      -1.406       2.866
  q+dip:       -8.824       0.950       5.003       5.389      -2.194       3.820
   full:      -10.014       0.848       6.147       6.067      -1.972       3.867


           -------------------------------------------------
          | TOTAL ENERGY              -20.829122445257 Eh   |
          | GRADIENT NORM               0.051357241828 Eh/α |
          | HOMO-LUMO GAP               0.164852936711 eV   |
           -------------------------------------------------

------------------------------------------------------------------------
 * finished run on 2021/06/02 at 10:00:08.665     
------------------------------------------------------------------------
 total:
 * wall-time:     0 d,  0 h,  0 min,  0.016 sec
 *  cpu-time:     0 d,  0 h,  0 min,  0.016 sec
 * ratio c/w:     0.969 speedup
 SCF:
 * wall-time:     0 d,  0 h,  0 min,  0.008 sec
 *  cpu-time:     0 d,  0 h,  0 min,  0.008 sec
 * ratio c/w:     1.000 speedup

