 Entering Gaussian System, Link 0=/software/kemi/g16/avx2/g16/g16
 Initial command:
 /software/kemi/g16/avx2/g16/l1.exe "/scratch/23935644/Gau-15087.inp" -scrdir="/scratch/23935644/"
 Entering Link 1 = /software/kemi/g16/avx2/g16/l1.exe PID=     15088.
  
 Copyright (c) 1988,1990,1992,1993,1995,1998,2003,2009,2016,
            Gaussian, Inc.  All Rights Reserved.
  
 This is part of the Gaussian(R) 16 program.  It is based on
 the Gaussian(R) 09 system (copyright 2009, Gaussian, Inc.),
 the Gaussian(R) 03 system (copyright 2003, Gaussian, Inc.),
 the Gaussian(R) 98 system (copyright 1998, Gaussian, Inc.),
 the Gaussian(R) 94 system (copyright 1995, Gaussian, Inc.),
 the Gaussian 92(TM) system (copyright 1992, Gaussian, Inc.),
 the Gaussian 90(TM) system (copyright 1990, Gaussian, Inc.),
 the Gaussian 88(TM) system (copyright 1988, Gaussian, Inc.),
 the Gaussian 86(TM) system (copyright 1986, Carnegie Mellon
 University), and the Gaussian 82(TM) system (copyright 1983,
 Carnegie Mellon University). Gaussian is a federally registered
 trademark of Gaussian, Inc.
  
 This software contains proprietary and confidential information,
 including trade secrets, belonging to Gaussian, Inc.
  
 This software is provided under written license and may be
 used, copied, transmitted, or stored only in accord with that
 written license.
  
 The following legend is applicable only to US Government
 contracts under FAR:
  
                    RESTRICTED RIGHTS LEGEND
  
 Use, reproduction and disclosure by the US Government is
 subject to restrictions as set forth in subparagraphs (a)
 and (c) of the Commercial Computer Software - Restricted
 Rights clause in FAR 52.227-19.
  
 Gaussian, Inc.
 340 Quinnipiac St., Bldg. 40, Wallingford CT 06492
  
  
 ---------------------------------------------------------------
 Warning -- This program may not be used in any manner that
 competes with the business of Gaussian, Inc. or will provide
 assistance to any competitor of Gaussian, Inc.  The licensee
 of this program is prohibited from giving any competitor of
 Gaussian, Inc. access to this program.  By using this program,
 the user acknowledges that Gaussian, Inc. is engaged in the
 business of creating and licensing software in the field of
 computational chemistry and represents and warrants to the
 licensee that it is not a competitor of Gaussian, Inc. and that
 it will not use this program in any manner prohibited above.
 ---------------------------------------------------------------
  

 Cite this work as:
 Gaussian 16, Revision A.03,
 M. J. Frisch, G. W. Trucks, H. B. Schlegel, G. E. Scuseria, 
 M. A. Robb, J. R. Cheeseman, G. Scalmani, V. Barone, 
 G. A. Petersson, H. Nakatsuji, X. Li, M. Caricato, A. V. Marenich, 
 J. Bloino, B. G. Janesko, R. Gomperts, B. Mennucci, H. P. Hratchian, 
 J. V. Ortiz, A. F. Izmaylov, J. L. Sonnenberg, D. Williams-Young, 
 F. Ding, F. Lipparini, F. Egidi, J. Goings, B. Peng, A. Petrone, 
 T. Henderson, D. Ranasinghe, V. G. Zakrzewski, J. Gao, N. Rega, 
 G. Zheng, W. Liang, M. Hada, M. Ehara, K. Toyota, R. Fukuda, 
 J. Hasegawa, M. Ishida, T. Nakajima, Y. Honda, O. Kitao, H. Nakai, 
 T. Vreven, K. Throssell, J. A. Montgomery, Jr., J. E. Peralta, 
 F. Ogliaro, M. J. Bearpark, J. J. Heyd, E. N. Brothers, K. N. Kudin, 
 V. N. Staroverov, T. A. Keith, R. Kobayashi, J. Normand, 
 K. Raghavachari, A. P. Rendell, J. C. Burant, S. S. Iyengar, 
 J. Tomasi, M. Cossi, J. M. Millam, M. Klene, C. Adamo, R. Cammi, 
 J. W. Ochterski, R. L. Martin, K. Morokuma, O. Farkas, 
 J. B. Foresman, and D. J. Fox, Gaussian, Inc., Wallingford CT, 2016.
 
 ******************************************
 Gaussian 16:  ES64L-G16RevA.03 25-Dec-2016
                22-Jun-2021 
 ******************************************
 %nprocshared=4
 Will use up to    4 processors via shared memory.
 %mem=8GB
 ------------------
 # UwB97XD/Def2TZVP
 ------------------
 1/38=1,172=1/1;
 2/12=2,17=6,18=5,40=1/2;
 3/5=44,7=101,11=2,25=1,30=1,74=-58,116=2/1,2,3;
 4//1;
 5/5=2,38=5/2;
 6/7=2,8=2,9=2,10=2,28=1/1;
 99/5=1,9=1/99;
 ---------------
 something title
 ---------------
 Symbolic Z-matrix:
 Charge =  0 Multiplicity = 1
 N                    -0.5053   -0.16396  -1.28356 
 C                    -0.44204  -0.87283  -0.20907 
 N                    -1.54315  -1.13496   0.50176 
 N                    -2.63286  -1.31557   0.75972 
 O                     3.05945  -1.38501  -0.27003 
 N                     1.87071  -1.31081  -0.28067 
 C                     0.81998  -1.25092   0.41284 
 H                    -1.42023   0.18591  -1.55501 
 H                     0.76952  -1.56381   1.44635 
 
                          Input orientation:                          
 ---------------------------------------------------------------------
 Center     Atomic      Atomic             Coordinates (Angstroms)
 Number     Number       Type             X           Y           Z
 ---------------------------------------------------------------------
      1          7           0       -0.505301   -0.163962   -1.283562
      2          6           0       -0.442038   -0.872831   -0.209070
      3          7           0       -1.543154   -1.134957    0.501763
      4          7           0       -2.632860   -1.315569    0.759717
      5          8           0        3.059448   -1.385013   -0.270030
      6          7           0        1.870708   -1.310810   -0.280672
      7          6           0        0.819975   -1.250924    0.412842
      8          1           0       -1.420225    0.185907   -1.555014
      9          1           0        0.769520   -1.563807    1.446345
 ---------------------------------------------------------------------
                    Distance matrix (angstroms):
                    1          2          3          4          5
     1  N    0.000000
     2  C    1.288810   0.000000
     3  N    2.281963   1.336581   0.000000
     4  N    3.166654   2.436035   1.134293   0.000000
     5  O    3.902006   3.539273   4.673557   5.785116   0.000000
     6  N    2.822493   2.354941   3.506791   4.622181   1.191101
     7  C    2.411562   1.456848   2.367643   3.470817   2.345108
     8  H    1.016455   1.972141   2.447473   3.013784   4.917972
     9  H    3.322217   2.164652   2.534681   3.479838   2.867347
                    6          7          8          9
     6  N    0.000000
     7  C    1.260392   0.000000
     8  H    3.833321   3.309900   0.000000
     9  H    2.063785   1.081004   4.106658   0.000000
 Stoichiometry    C2H2N4O
 Framework group  C1[X(C2H2N4O)]
 Deg. of freedom    21
 Full point group                 C1      NOp   1
 Largest Abelian subgroup         C1      NOp   1
 Largest concise Abelian subgroup C1      NOp   1
                         Standard orientation:                         
 ---------------------------------------------------------------------
 Center     Atomic      Atomic             Coordinates (Angstroms)
 Number     Number       Type             X           Y           Z
 ---------------------------------------------------------------------
      1          7           0       -0.543299    1.544354    0.041387
      2          6           0       -0.560014    0.256049    0.009445
      3          7           0       -1.717274   -0.412419    0.028130
      4          7           0       -2.815409   -0.655537   -0.118883
      5          8           0        2.950521   -0.191151   -0.041638
      6          7           0        1.768976   -0.065679   -0.124886
      7          6           0        0.642400   -0.552065    0.162936
      8          1           0       -1.441098    2.018694    0.087632
      9          1           0        0.491659   -1.588413    0.430947
 ---------------------------------------------------------------------
 Rotational constants (GHZ):           9.2765090           1.4375159           1.2507174
 Standard basis: def2TZVP (5D, 7F)
 There are   264 symmetry adapted cartesian basis functions of A   symmetry.
 There are   229 symmetry adapted basis functions of A   symmetry.
   229 basis functions,   373 primitive gaussians,   264 cartesian basis functions
    25 alpha electrons       25 beta electrons
       nuclear repulsion energy       256.9271903808 Hartrees.
 NAtoms=    9 NActive=    9 NUniq=    9 SFac= 1.00D+00 NAtFMM=   60 NAOKFM=F Big=F
 Integral buffers will be    131072 words long.
 Raffenetti 2 integral format.
 Two-electron integral symmetry is turned on.
 Nuclear repulsion after empirical dispersion term =      256.9246622360 Hartrees.
 One-electron integrals computed using PRISM.
   1 Symmetry operations used in ECPInt.
 ECPInt:  NShTT=    3655 NPrTT=   11788 LenC2=    3522 LenP2D=    9053.
 LDataN:  DoStor=T MaxTD1= 6 Len=  172
 NBasis=   229 RedAO= T EigKep=  1.81D-04  NBF=   229
 NBsUse=   229 1.00D-06 EigRej= -1.00D+00 NBFU=   229
 ExpMin= 9.52D-02 ExpMax= 2.70D+04 ExpMxC= 9.22D+02 IAcc=3 IRadAn=         5 AccDes= 0.00D+00
 Harris functional with IExCor= 4639 and IRadAn=       5 diagonalized for initial guess.
 HarFok:  IExCor= 4639 AccDes= 0.00D+00 IRadAn=         5 IDoV= 1 UseB2=F ITyADJ=14
 ICtDFT=  3500011 ScaDFX=  1.000000  1.000000  1.000000  1.000000
 FoFCou: FMM=F IPFlag=           0 FMFlag=      100000 FMFlg1=           0
         NFxFlg=           0 DoJE=T BraDBF=F KetDBF=T FulRan=T
         wScrn=  0.000000 ICntrl=       500 IOpCl=  0 I1Cent=   200000004 NGrid=           0
         NMat0=    1 NMatS0=      1 NMatT0=    0 NMatD0=    1 NMtDS0=    0 NMtDT0=    0
 Petite list used in FoFCou.
 Initial guess <Sx>= 0.0000 <Sy>= 0.0000 <Sz>= 0.0000 <S**2>=-0.0000 S=-0.0000
 Requested convergence on RMS density matrix=1.00D-08 within 128 cycles.
 Requested convergence on MAX density matrix=1.00D-06.
 Requested convergence on             energy=1.00D-06.
 No special actions if energy rises.
 Integral accuracy reduced to 1.0D-05 until final iterations.
 EnCoef did     2 forward-backward iterations
 Initial convergence to 1.0D-05 achieved.  Increase integral accuracy.
 SCF Done:  E(UwB97XD) =  -371.402452239     A.U. after   29 cycles
            NFock= 29  Conv=0.28D-08     -V/T= 2.0035
 <Sx>= 0.0000 <Sy>= 0.0000 <Sz>= 0.0000 <S**2>=-0.0000 S=-0.0000
 <L.S>=  0.00000000000    
 Annihilation of the first spin contaminant:
 S**2 before annihilation    -0.0000,   after     0.0000

 **********************************************************************

            Population analysis using the SCF density.

 **********************************************************************

 Orbital symmetries:
 Alpha Orbitals:
       Occupied  (A) (A) (A) (A) (A) (A) (A) (A) (A) (A) (A) (A)
                 (A) (A) (A) (A) (A) (A) (A) (A) (A) (A) (A) (A)
                 (A)
       Virtual   (A) (A) (A) (A) (A) (A) (A) (A) (A) (A) (A) (A)
                 (A) (A) (A) (A) (A) (A) (A) (A) (A) (A) (A) (A)
                 (A) (A) (A) (A) (A) (A) (A) (A) (A) (A) (A) (A)
                 (A) (A) (A) (A) (A) (A) (A) (A) (A) (A) (A) (A)
                 (A) (A) (A) (A) (A) (A) (A) (A) (A) (A) (A) (A)
                 (A) (A) (A) (A) (A) (A) (A) (A) (A) (A) (A) (A)
                 (A) (A) (A) (A) (A) (A) (A) (A) (A) (A) (A) (A)
                 (A) (A) (A) (A) (A) (A) (A) (A) (A) (A) (A) (A)
                 (A) (A) (A) (A) (A) (A) (A) (A) (A) (A) (A) (A)
                 (A) (A) (A) (A) (A) (A) (A) (A) (A) (A) (A) (A)
                 (A) (A) (A) (A) (A) (A) (A) (A) (A) (A) (A) (A)
                 (A) (A) (A) (A) (A) (A) (A) (A) (A) (A) (A) (A)
                 (A) (A) (A) (A) (A) (A) (A) (A) (A) (A) (A) (A)
                 (A) (A) (A) (A) (A) (A) (A) (A) (A) (A) (A) (A)
                 (A) (A) (A) (A) (A) (A) (A) (A) (A) (A) (A) (A)
                 (A) (A) (A) (A) (A) (A) (A) (A) (A) (A) (A) (A)
                 (A) (A) (A) (A) (A) (A) (A) (A) (A) (A) (A) (A)
 Beta  Orbitals:
       Occupied  (A) (A) (A) (A) (A) (A) (A) (A) (A) (A) (A) (A)
                 (A) (A) (A) (A) (A) (A) (A) (A) (A) (A) (A) (A)
                 (A)
       Virtual   (A) (A) (A) (A) (A) (A) (A) (A) (A) (A) (A) (A)
                 (A) (A) (A) (A) (A) (A) (A) (A) (A) (A) (A) (A)
                 (A) (A) (A) (A) (A) (A) (A) (A) (A) (A) (A) (A)
                 (A) (A) (A) (A) (A) (A) (A) (A) (A) (A) (A) (A)
                 (A) (A) (A) (A) (A) (A) (A) (A) (A) (A) (A) (A)
                 (A) (A) (A) (A) (A) (A) (A) (A) (A) (A) (A) (A)
                 (A) (A) (A) (A) (A) (A) (A) (A) (A) (A) (A) (A)
                 (A) (A) (A) (A) (A) (A) (A) (A) (A) (A) (A) (A)
                 (A) (A) (A) (A) (A) (A) (A) (A) (A) (A) (A) (A)
                 (A) (A) (A) (A) (A) (A) (A) (A) (A) (A) (A) (A)
                 (A) (A) (A) (A) (A) (A) (A) (A) (A) (A) (A) (A)
                 (A) (A) (A) (A) (A) (A) (A) (A) (A) (A) (A) (A)
                 (A) (A) (A) (A) (A) (A) (A) (A) (A) (A) (A) (A)
                 (A) (A) (A) (A) (A) (A) (A) (A) (A) (A) (A) (A)
                 (A) (A) (A) (A) (A) (A) (A) (A) (A) (A) (A) (A)
                 (A) (A) (A) (A) (A) (A) (A) (A) (A) (A) (A) (A)
                 (A) (A) (A) (A) (A) (A) (A) (A) (A) (A) (A) (A)
 The electronic state is 1-A.
 Alpha  occ. eigenvalues --  -19.29605 -14.63849 -14.59953 -14.54911 -14.44130
 Alpha  occ. eigenvalues --  -10.42002 -10.34741  -1.28882  -1.26319  -1.07571
 Alpha  occ. eigenvalues --   -0.97347  -0.92906  -0.74130  -0.66900  -0.64616
 Alpha  occ. eigenvalues --   -0.63725  -0.62084  -0.59934  -0.57576  -0.56658
 Alpha  occ. eigenvalues --   -0.49317  -0.45877  -0.39230  -0.33568  -0.24670
 Alpha virt. eigenvalues --   -0.09087  -0.04810   0.03510   0.10368   0.14091
 Alpha virt. eigenvalues --    0.15099   0.18178   0.19074   0.24248   0.27217
 Alpha virt. eigenvalues --    0.28711   0.30092   0.32057   0.32842   0.33936
 Alpha virt. eigenvalues --    0.35697   0.38333   0.40072   0.41604   0.44628
 Alpha virt. eigenvalues --    0.45609   0.46499   0.48298   0.49187   0.51071
 Alpha virt. eigenvalues --    0.53488   0.54333   0.54989   0.55461   0.57395
 Alpha virt. eigenvalues --    0.58150   0.60111   0.61825   0.64785   0.65661
 Alpha virt. eigenvalues --    0.68135   0.70618   0.73237   0.78313   0.79608
 Alpha virt. eigenvalues --    0.81011   0.82942   0.85310   0.90123   0.91952
 Alpha virt. eigenvalues --    0.97317   1.00360   1.02213   1.05390   1.11206
 Alpha virt. eigenvalues --    1.11808   1.14853   1.19800   1.26339   1.28927
 Alpha virt. eigenvalues --    1.30151   1.31873   1.33901   1.39107   1.43525
 Alpha virt. eigenvalues --    1.44426   1.47027   1.50644   1.50957   1.53384
 Alpha virt. eigenvalues --    1.55764   1.58380   1.61746   1.66094   1.66593
 Alpha virt. eigenvalues --    1.69803   1.71889   1.76269   1.78225   1.81743
 Alpha virt. eigenvalues --    1.83769   1.89280   1.90201   1.91232   1.97153
 Alpha virt. eigenvalues --    2.01296   2.05239   2.07468   2.12086   2.13047
 Alpha virt. eigenvalues --    2.14929   2.19165   2.23976   2.24772   2.26230
 Alpha virt. eigenvalues --    2.28188   2.34937   2.37447   2.39498   2.43630
 Alpha virt. eigenvalues --    2.47230   2.48122   2.56153   2.61345   2.64294
 Alpha virt. eigenvalues --    2.65823   2.71054   2.75401   2.82443   2.86194
 Alpha virt. eigenvalues --    2.89957   2.93373   2.96493   2.97710   3.00308
 Alpha virt. eigenvalues --    3.03813   3.07954   3.11550   3.14187   3.15942
 Alpha virt. eigenvalues --    3.20780   3.22603   3.25638   3.28781   3.37862
 Alpha virt. eigenvalues --    3.38268   3.42516   3.47084   3.50249   3.55872
 Alpha virt. eigenvalues --    3.58232   3.62492   3.64749   3.70300   3.73735
 Alpha virt. eigenvalues --    3.74977   3.78299   3.78644   3.84154   3.86383
 Alpha virt. eigenvalues --    3.89613   3.98004   4.04898   4.05256   4.07583
 Alpha virt. eigenvalues --    4.13471   4.19923   4.21857   4.29251   4.30967
 Alpha virt. eigenvalues --    4.37405   4.38441   4.42217   4.44630   4.49530
 Alpha virt. eigenvalues --    4.50859   4.56569   4.60456   4.63564   4.66565
 Alpha virt. eigenvalues --    4.71395   4.73141   4.75894   4.77943   4.79377
 Alpha virt. eigenvalues --    4.83797   4.87308   4.92631   4.93009   4.96620
 Alpha virt. eigenvalues --    5.04407   5.05460   5.08943   5.11331   5.13050
 Alpha virt. eigenvalues --    5.14047   5.20641   5.24225   5.25582   5.26656
 Alpha virt. eigenvalues --    5.38207   5.40239   5.46314   5.57048   5.59448
 Alpha virt. eigenvalues --    5.72348   5.79276   5.81542   5.89764   6.02273
 Alpha virt. eigenvalues --    6.35795   6.36485   6.40453   6.55166   6.60331
 Alpha virt. eigenvalues --    6.63292   6.77231   6.91583   7.04351   7.17655
 Alpha virt. eigenvalues --    7.35907   7.42598  22.91199  23.33423  31.73527
 Alpha virt. eigenvalues --   32.08622  32.60248  32.97575  44.18763
  Beta  occ. eigenvalues --  -19.29605 -14.63849 -14.59953 -14.54911 -14.44130
  Beta  occ. eigenvalues --  -10.42002 -10.34741  -1.28882  -1.26319  -1.07571
  Beta  occ. eigenvalues --   -0.97347  -0.92906  -0.74130  -0.66900  -0.64616
  Beta  occ. eigenvalues --   -0.63725  -0.62084  -0.59934  -0.57576  -0.56658
  Beta  occ. eigenvalues --   -0.49317  -0.45877  -0.39230  -0.33568  -0.24670
  Beta virt. eigenvalues --   -0.09087  -0.04810   0.03510   0.10368   0.14091
  Beta virt. eigenvalues --    0.15099   0.18178   0.19074   0.24248   0.27217
  Beta virt. eigenvalues --    0.28711   0.30092   0.32057   0.32842   0.33936
  Beta virt. eigenvalues --    0.35697   0.38333   0.40072   0.41604   0.44628
  Beta virt. eigenvalues --    0.45609   0.46499   0.48298   0.49187   0.51071
  Beta virt. eigenvalues --    0.53488   0.54333   0.54989   0.55461   0.57395
  Beta virt. eigenvalues --    0.58150   0.60111   0.61825   0.64785   0.65661
  Beta virt. eigenvalues --    0.68135   0.70618   0.73237   0.78313   0.79608
  Beta virt. eigenvalues --    0.81011   0.82942   0.85310   0.90123   0.91952
  Beta virt. eigenvalues --    0.97317   1.00360   1.02213   1.05390   1.11206
  Beta virt. eigenvalues --    1.11808   1.14853   1.19800   1.26339   1.28927
  Beta virt. eigenvalues --    1.30151   1.31873   1.33901   1.39107   1.43525
  Beta virt. eigenvalues --    1.44426   1.47027   1.50644   1.50957   1.53384
  Beta virt. eigenvalues --    1.55764   1.58380   1.61746   1.66094   1.66593
  Beta virt. eigenvalues --    1.69803   1.71889   1.76269   1.78225   1.81743
  Beta virt. eigenvalues --    1.83769   1.89280   1.90201   1.91232   1.97153
  Beta virt. eigenvalues --    2.01296   2.05239   2.07468   2.12086   2.13047
  Beta virt. eigenvalues --    2.14929   2.19165   2.23976   2.24772   2.26230
  Beta virt. eigenvalues --    2.28188   2.34937   2.37447   2.39498   2.43630
  Beta virt. eigenvalues --    2.47230   2.48122   2.56153   2.61345   2.64294
  Beta virt. eigenvalues --    2.65823   2.71054   2.75401   2.82443   2.86194
  Beta virt. eigenvalues --    2.89957   2.93373   2.96493   2.97710   3.00308
  Beta virt. eigenvalues --    3.03813   3.07954   3.11550   3.14187   3.15942
  Beta virt. eigenvalues --    3.20780   3.22603   3.25638   3.28781   3.37862
  Beta virt. eigenvalues --    3.38268   3.42516   3.47084   3.50249   3.55872
  Beta virt. eigenvalues --    3.58232   3.62492   3.64749   3.70300   3.73735
  Beta virt. eigenvalues --    3.74977   3.78299   3.78644   3.84154   3.86383
  Beta virt. eigenvalues --    3.89613   3.98004   4.04898   4.05256   4.07583
  Beta virt. eigenvalues --    4.13471   4.19923   4.21857   4.29251   4.30967
  Beta virt. eigenvalues --    4.37405   4.38441   4.42217   4.44630   4.49530
  Beta virt. eigenvalues --    4.50859   4.56569   4.60456   4.63564   4.66565
  Beta virt. eigenvalues --    4.71395   4.73141   4.75894   4.77943   4.79377
  Beta virt. eigenvalues --    4.83797   4.87308   4.92631   4.93009   4.96620
  Beta virt. eigenvalues --    5.04407   5.05460   5.08943   5.11331   5.13050
  Beta virt. eigenvalues --    5.14047   5.20641   5.24225   5.25582   5.26656
  Beta virt. eigenvalues --    5.38207   5.40239   5.46314   5.57048   5.59448
  Beta virt. eigenvalues --    5.72348   5.79276   5.81542   5.89764   6.02273
  Beta virt. eigenvalues --    6.35795   6.36485   6.40453   6.55166   6.60331
  Beta virt. eigenvalues --    6.63292   6.77231   6.91583   7.04351   7.17655
  Beta virt. eigenvalues --    7.35907   7.42598  22.91199  23.33423  31.73527
  Beta virt. eigenvalues --   32.08622  32.60248  32.97575  44.18763
          Condensed to atoms (all electrons):
               1          2          3          4          5          6
     1  N    6.535653   0.680348  -0.083424  -0.001822  -0.001008   0.002267
     2  C    0.680348   4.786468   0.319789  -0.051555   0.004861  -0.081619
     3  N   -0.083424   0.319789   6.277705   0.403440  -0.000130   0.000878
     4  N   -0.001822  -0.051555   0.403440   6.692879   0.000000   0.000570
     5  O   -0.001008   0.004861  -0.000130   0.000000   8.112729   0.242589
     6  N    0.002267  -0.081619   0.000878   0.000570   0.242589   6.104226
     7  C   -0.097066   0.284204  -0.051318   0.005435  -0.068867   0.571273
     8  H    0.346257  -0.060142  -0.010823   0.001175   0.000017   0.000067
     9  H   -0.002032  -0.133726   0.021144   0.004166   0.004846  -0.028887
               7          8          9
     1  N   -0.097066   0.346257  -0.002032
     2  C    0.284204  -0.060142  -0.133726
     3  N   -0.051318  -0.010823   0.021144
     4  N    0.005435   0.001175   0.004166
     5  O   -0.068867   0.000017   0.004846
     6  N    0.571273   0.000067  -0.028887
     7  C    5.085442   0.015179   0.428353
     8  H    0.015179   0.488132  -0.000317
     9  H    0.428353  -0.000317   0.588516
          Atomic-Atomic Spin Densities.
               1          2          3          4          5          6
     1  N    0.000000  -0.000000  -0.000000   0.000000  -0.000000   0.000000
     2  C   -0.000000   0.000000   0.000000  -0.000000  -0.000000   0.000000
     3  N   -0.000000   0.000000   0.000000  -0.000000   0.000000  -0.000000
     4  N    0.000000  -0.000000  -0.000000   0.000000  -0.000000   0.000000
     5  O   -0.000000  -0.000000   0.000000  -0.000000  -0.000000   0.000000
     6  N    0.000000   0.000000  -0.000000   0.000000   0.000000  -0.000000
     7  C   -0.000000  -0.000000   0.000000   0.000000   0.000000  -0.000000
     8  H   -0.000000   0.000000   0.000000  -0.000000   0.000000  -0.000000
     9  H   -0.000000   0.000000  -0.000000  -0.000000  -0.000000   0.000000
               7          8          9
     1  N   -0.000000  -0.000000  -0.000000
     2  C   -0.000000   0.000000   0.000000
     3  N    0.000000   0.000000  -0.000000
     4  N    0.000000  -0.000000  -0.000000
     5  O    0.000000   0.000000  -0.000000
     6  N   -0.000000  -0.000000   0.000000
     7  C   -0.000000  -0.000000   0.000000
     8  H   -0.000000  -0.000000  -0.000000
     9  H    0.000000  -0.000000  -0.000000
 Mulliken charges and spin densities:
               1          2
     1  N   -0.379175   0.000000
     2  C    0.251371   0.000000
     3  N    0.122739   0.000000
     4  N   -0.054289   0.000000
     5  O   -0.295038  -0.000000
     6  N    0.188637  -0.000000
     7  C   -0.172635  -0.000000
     8  H    0.220454  -0.000000
     9  H    0.117936  -0.000000
 Sum of Mulliken charges =  -0.00000  -0.00000
 Mulliken charges and spin densities with hydrogens summed into heavy atoms:
               1          2
     1  N   -0.158721   0.000000
     2  C    0.251371   0.000000
     3  N    0.122739   0.000000
     4  N   -0.054289   0.000000
     5  O   -0.295038  -0.000000
     6  N    0.188637  -0.000000
     7  C   -0.054699  -0.000000
 Electronic spatial extent (au):  <R**2>=            830.2248
 Charge=             -0.0000 electrons
 Dipole moment (field-independent basis, Debye):
    X=             -4.6817    Y=             -1.6972    Z=              0.4629  Tot=              5.0014
 Quadrupole moment (field-independent basis, Debye-Ang):
   XX=            -44.7318   YY=            -38.1925   ZZ=            -39.2517
   XY=             -2.9841   XZ=              0.1867   YZ=              0.0998
 Traceless Quadrupole moment (field-independent basis, Debye-Ang):
   XX=             -4.0065   YY=              2.5328   ZZ=              1.4736
   XY=             -2.9841   XZ=              0.1867   YZ=              0.0998
 Octapole moment (field-independent basis, Debye-Ang**2):
  XXX=            -22.5461  YYY=             -4.9785  ZZZ=             -0.5410  XYY=             -4.3786
  XXY=              8.3745  XXZ=              1.5796  XZZ=              1.1098  YZZ=             -1.0501
  YYZ=              0.7846  XYZ=              0.6152
 Hexadecapole moment (field-independent basis, Debye-Ang**3):
 XXXX=           -915.4674 YYYY=           -169.8821 ZZZZ=            -40.0722 XXXY=            -14.7679
 XXXZ=             -1.6612 YYYX=            -15.5623 YYYZ=             -0.1189 ZZZX=             -0.6306
 ZZZY=              0.8257 XXYY=           -150.7005 XXZZ=           -140.2386 YYZZ=            -37.6961
 XXYZ=              2.2296 YYXZ=             -0.7691 ZZXY=             -0.2686
 N-N= 2.569246622360D+02 E-N=-1.382493580282D+03  KE= 3.700896098200D+02
                          Isotropic Fermi Contact Couplings
        Atom                 a.u.       MegaHertz       Gauss      10(-4) cm-1
     1  N(14)              0.00000       0.00000       0.00000       0.00000
     2  C(13)             -0.00000      -0.00000      -0.00000      -0.00000
     3  N(14)              0.00000       0.00000       0.00000       0.00000
     4  N(14)              0.00000       0.00000       0.00000       0.00000
     5  O(17)             -0.00000       0.00000       0.00000       0.00000
     6  N(14)             -0.00000      -0.00000      -0.00000      -0.00000
     7  C(13)             -0.00000      -0.00000      -0.00000      -0.00000
     8  H(1)              -0.00000      -0.00000      -0.00000      -0.00000
     9  H(1)              -0.00000      -0.00000      -0.00000      -0.00000
 --------------------------------------------------------
       Center         ----  Spin Dipole Couplings  ----
                      3XX-RR        3YY-RR        3ZZ-RR
 --------------------------------------------------------
     1   Atom       -0.000000     -0.000000      0.000000
     2   Atom       -0.000000     -0.000000      0.000000
     3   Atom       -0.000000     -0.000000      0.000000
     4   Atom       -0.000000     -0.000000      0.000000
     5   Atom        0.000000     -0.000000      0.000000
     6   Atom        0.000000     -0.000000      0.000000
     7   Atom       -0.000000      0.000000     -0.000000
     8   Atom        0.000000     -0.000000     -0.000000
     9   Atom        0.000000     -0.000000      0.000000
 --------------------------------------------------------
                        XY            XZ            YZ
 --------------------------------------------------------
     1   Atom        0.000000      0.000000     -0.000000
     2   Atom        0.000000      0.000000      0.000000
     3   Atom        0.000000     -0.000000      0.000000
     4   Atom        0.000000     -0.000000     -0.000000
     5   Atom        0.000000     -0.000000      0.000000
     6   Atom        0.000000     -0.000000      0.000000
     7   Atom       -0.000000      0.000000      0.000000
     8   Atom       -0.000000      0.000000      0.000000
     9   Atom       -0.000000      0.000000      0.000000
 --------------------------------------------------------


 ---------------------------------------------------------------------------------
              Anisotropic Spin Dipole Couplings in Principal Axis System
 ---------------------------------------------------------------------------------

       Atom             a.u.   MegaHertz   Gauss  10(-4) cm-1        Axes

              Baa    -0.0000    -0.000    -0.000    -0.000  0.9173 -0.3965 -0.0370
     1 N(14)  Bbb    -0.0000    -0.000    -0.000    -0.000  0.3966  0.9180 -0.0059
              Bcc     0.0000     0.000     0.000     0.000  0.0363 -0.0093  0.9993
 
              Baa    -0.0000    -0.000    -0.000    -0.000  0.9030 -0.3970 -0.1646
     2 C(13)  Bbb    -0.0000    -0.000    -0.000    -0.000  0.2637  0.8143 -0.5171
              Bcc     0.0000     0.000     0.000     0.000  0.3393  0.4235  0.8399
 
              Baa    -0.0000    -0.000    -0.000    -0.000 -0.3015  0.9533 -0.0191
     3 N(14)  Bbb    -0.0000    -0.000    -0.000    -0.000  0.9533  0.3017  0.0128
              Bcc     0.0000     0.000     0.000     0.000 -0.0180  0.0144  0.9997
 
              Baa    -0.0000    -0.000    -0.000    -0.000  0.9944 -0.0640  0.0845
     4 N(14)  Bbb    -0.0000    -0.000    -0.000    -0.000  0.0602  0.9971  0.0474
              Bcc     0.0000     0.000     0.000     0.000 -0.0873 -0.0420  0.9953
 
              Baa    -0.0000     0.000     0.000     0.000 -0.0637  0.9830 -0.1722
     5 O(17)  Bbb     0.0000    -0.000    -0.000    -0.000  0.9951  0.0755  0.0632
              Bcc     0.0000    -0.000    -0.000    -0.000 -0.0751  0.1674  0.9830
 
              Baa    -0.0000    -0.000    -0.000    -0.000 -0.1073  0.9447 -0.3098
     6 N(14)  Bbb     0.0000     0.000     0.000     0.000  0.9824  0.0528 -0.1793
              Bcc     0.0000     0.000     0.000     0.000  0.1530  0.3235  0.9338
 
              Baa    -0.0000    -0.000    -0.000    -0.000 -0.6638 -0.1633  0.7298
     7 C(13)  Bbb     0.0000     0.000     0.000     0.000  0.5697  0.5218  0.6349
              Bcc     0.0000     0.000     0.000     0.000 -0.4845  0.8373 -0.2533
 
              Baa    -0.0000    -0.000    -0.000    -0.000  0.4818  0.8753 -0.0408
     8 H(1)   Bbb    -0.0000    -0.000    -0.000    -0.000  0.0300  0.0301  0.9991
              Bcc     0.0000     0.000     0.000     0.000  0.8758 -0.4826 -0.0117
 
              Baa    -0.0000    -0.000    -0.000    -0.000  0.4672  0.8716 -0.1485
     9 H(1)   Bbb     0.0000     0.000     0.000     0.000 -0.3368  0.3307  0.8816
              Bcc     0.0000     0.000     0.000     0.000  0.8175 -0.3619  0.4481
 

 ---------------------------------------------------------------------------------

 1\1\GINC-NODE305\SP\UwB97XD\def2TZVP\C2H2N4O1\MHARRIS\22-Jun-2021\0\\#
  UwB97XD/Def2TZVP\\something title\\0,1\N,0,-0.505301,-0.163962,-1.283
 562\C,0,-0.442038,-0.872831,-0.20907\N,0,-1.543154,-1.134957,0.501763\
 N,0,-2.63286,-1.315569,0.759717\O,0,3.059448,-1.385013,-0.27003\N,0,1.
 870708,-1.31081,-0.280672\C,0,0.819975,-1.250924,0.412842\H,0,-1.42022
 5,0.185907,-1.555014\H,0,0.76952,-1.563807,1.446345\\Version=ES64L-G16
 RevA.03\State=1-A\HF=-371.4024522\S2=0.\S2-1=0.\S2A=0.\RMSD=2.780e-09\
 Dipole=-1.7602888,-0.0783608,0.8758086\Quadrupole=-2.5847237,1.5055702
 ,1.0791535,-0.8195492,2.4189733,-0.4214155\PG=C01 [X(C2H2N4O1)]\\@


 THE MOST BEAUTIFUL EXPERIENCE WE CAN HAVE IS THE MYSTERIOUS.
 IT IS THE FUNDAMENTAL EMOTION WHICH STANDS AT AT THE CRADLE 
 OF TRUE ART AND TRUE SCIENCE.

                                    -- ALBERT EINSTEIN
 Job cpu time:       0 days  0 hours 25 minutes 51.5 seconds.
 Elapsed time:       0 days  0 hours  6 minutes 28.3 seconds.
 File lengths (MBytes):  RWF=     54 Int=      0 D2E=      0 Chk=      5 Scr=      1
 Normal termination of Gaussian 16 at Tue Jun 22 16:56:10 2021.
