 Entering Gaussian System, Link 0=/software/kemi/g16/avx2/g16/g16
 Initial command:
 /software/kemi/g16/avx2/g16/l1.exe "/scratch/23935644/Gau-15597.inp" -scrdir="/scratch/23935644/"
 Entering Link 1 = /software/kemi/g16/avx2/g16/l1.exe PID=     15598.
  
 Copyright (c) 1988,1990,1992,1993,1995,1998,2003,2009,2016,
            Gaussian, Inc.  All Rights Reserved.
  
 This is part of the Gaussian(R) 16 program.  It is based on
 the Gaussian(R) 09 system (copyright 2009, Gaussian, Inc.),
 the Gaussian(R) 03 system (copyright 2003, Gaussian, Inc.),
 the Gaussian(R) 98 system (copyright 1998, Gaussian, Inc.),
 the Gaussian(R) 94 system (copyright 1995, Gaussian, Inc.),
 the Gaussian 92(TM) system (copyright 1992, Gaussian, Inc.),
 the Gaussian 90(TM) system (copyright 1990, Gaussian, Inc.),
 the Gaussian 88(TM) system (copyright 1988, Gaussian, Inc.),
 the Gaussian 86(TM) system (copyright 1986, Carnegie Mellon
 University), and the Gaussian 82(TM) system (copyright 1983,
 Carnegie Mellon University). Gaussian is a federally registered
 trademark of Gaussian, Inc.
  
 This software contains proprietary and confidential information,
 including trade secrets, belonging to Gaussian, Inc.
  
 This software is provided under written license and may be
 used, copied, transmitted, or stored only in accord with that
 written license.
  
 The following legend is applicable only to US Government
 contracts under FAR:
  
                    RESTRICTED RIGHTS LEGEND
  
 Use, reproduction and disclosure by the US Government is
 subject to restrictions as set forth in subparagraphs (a)
 and (c) of the Commercial Computer Software - Restricted
 Rights clause in FAR 52.227-19.
  
 Gaussian, Inc.
 340 Quinnipiac St., Bldg. 40, Wallingford CT 06492
  
  
 ---------------------------------------------------------------
 Warning -- This program may not be used in any manner that
 competes with the business of Gaussian, Inc. or will provide
 assistance to any competitor of Gaussian, Inc.  The licensee
 of this program is prohibited from giving any competitor of
 Gaussian, Inc. access to this program.  By using this program,
 the user acknowledges that Gaussian, Inc. is engaged in the
 business of creating and licensing software in the field of
 computational chemistry and represents and warrants to the
 licensee that it is not a competitor of Gaussian, Inc. and that
 it will not use this program in any manner prohibited above.
 ---------------------------------------------------------------
  

 Cite this work as:
 Gaussian 16, Revision A.03,
 M. J. Frisch, G. W. Trucks, H. B. Schlegel, G. E. Scuseria, 
 M. A. Robb, J. R. Cheeseman, G. Scalmani, V. Barone, 
 G. A. Petersson, H. Nakatsuji, X. Li, M. Caricato, A. V. Marenich, 
 J. Bloino, B. G. Janesko, R. Gomperts, B. Mennucci, H. P. Hratchian, 
 J. V. Ortiz, A. F. Izmaylov, J. L. Sonnenberg, D. Williams-Young, 
 F. Ding, F. Lipparini, F. Egidi, J. Goings, B. Peng, A. Petrone, 
 T. Henderson, D. Ranasinghe, V. G. Zakrzewski, J. Gao, N. Rega, 
 G. Zheng, W. Liang, M. Hada, M. Ehara, K. Toyota, R. Fukuda, 
 J. Hasegawa, M. Ishida, T. Nakajima, Y. Honda, O. Kitao, H. Nakai, 
 T. Vreven, K. Throssell, J. A. Montgomery, Jr., J. E. Peralta, 
 F. Ogliaro, M. J. Bearpark, J. J. Heyd, E. N. Brothers, K. N. Kudin, 
 V. N. Staroverov, T. A. Keith, R. Kobayashi, J. Normand, 
 K. Raghavachari, A. P. Rendell, J. C. Burant, S. S. Iyengar, 
 J. Tomasi, M. Cossi, J. M. Millam, M. Klene, C. Adamo, R. Cammi, 
 J. W. Ochterski, R. L. Martin, K. Morokuma, O. Farkas, 
 J. B. Foresman, and D. J. Fox, Gaussian, Inc., Wallingford CT, 2016.
 
 ******************************************
 Gaussian 16:  ES64L-G16RevA.03 25-Dec-2016
                22-Jun-2021 
 ******************************************
 %nprocshared=4
 Will use up to    4 processors via shared memory.
 %mem=8GB
 -----------------------------------------------------------------
 #opt=(calcall, ts, noeigen, nomicro, maxstep=15) UwB97XD/Def2TZVP
 -----------------------------------------------------------------
 1/5=1,8=15,10=4,11=1,18=20,26=3,38=1/1,3;
 2/9=110,12=2,17=6,18=5,40=1/2;
 3/5=44,7=101,11=2,25=1,30=1,71=2,74=-58,116=2,140=1/1,2,3;
 4//1;
 5/5=2,38=5/2;
 8/6=4,10=90,11=11/1;
 11/6=1,8=1,9=11,15=111,16=1/1,2,10;
 10/6=1/2;
 6/7=2,8=2,9=2,10=2,18=1,28=1/1;
 7/10=1,25=1/1,2,3,16;
 1/5=1,8=15,10=4,11=1,18=20,26=3/3(3);
 2/9=110/2;
 7/8=1,9=1,25=1,44=-1/16;
 99//99;
 2/9=110/2;
 3/5=44,7=101,11=2,25=1,30=1,71=2,74=-58,116=2,140=1/1,2,3;
 4/5=5,16=3,69=1/1;
 5/5=2,38=5/2;
 8/6=4,10=90,11=11/1;
 11/6=1,8=1,9=11,15=111,16=1/1,2,10;
 10/6=1/2;
 7/10=1,25=1/1,2,3,16;
 1/5=1,8=15,10=4,11=1,18=20,26=3/3(-8);
 2/9=110/2;
 6/7=2,8=2,9=2,10=2,18=1,19=2,28=1/1;
 7/8=1,9=1,25=1,44=-1/16;
 99//99;
 ---------------
 something title
 ---------------
 Symbolic Z-matrix:
 Charge =  0 Multiplicity = 1
 N                    -0.4885   -0.18055  -1.29302 
 C                    -0.44785  -0.89904  -0.22223 
 N                    -1.54839  -1.12875   0.5045 
 N                    -2.63355  -1.31296   0.76403 
 O                     3.06596  -1.3429   -0.34415 
 N                     1.87504  -1.33101  -0.22723 
 C                     0.81251  -1.26348   0.42956 
 H                    -1.39614   0.20841  -1.55075 
 H                     0.737    -1.56168   1.4616 
 

 GradGradGradGradGradGradGradGradGradGradGradGradGradGradGradGradGradGrad
 Berny optimization.
 Initialization pass.
                           ----------------------------
                           !    Initial Parameters    !
                           ! (Angstroms and Degrees)  !
 --------------------------                            --------------------------
 ! Name  Definition              Value          Derivative Info.                !
 --------------------------------------------------------------------------------
 ! R1    R(1,2)                  1.2902         calculate D2E/DX2 analytically  !
 ! R2    R(1,8)                  1.0205         calculate D2E/DX2 analytically  !
 ! R3    R(2,3)                  1.3387         calculate D2E/DX2 analytically  !
 ! R4    R(2,7)                  1.465          calculate D2E/DX2 analytically  !
 ! R5    R(3,4)                  1.1309         calculate D2E/DX2 analytically  !
 ! R6    R(5,6)                  1.1967         calculate D2E/DX2 analytically  !
 ! R7    R(6,7)                  1.251          calculate D2E/DX2 analytically  !
 ! R8    R(7,9)                  1.0769         calculate D2E/DX2 analytically  !
 ! A1    A(2,1,8)              116.7358         calculate D2E/DX2 analytically  !
 ! A2    A(1,2,3)              121.3472         calculate D2E/DX2 analytically  !
 ! A3    A(1,2,7)              122.3382         calculate D2E/DX2 analytically  !
 ! A4    A(3,2,7)              115.0283         calculate D2E/DX2 analytically  !
 ! A5    A(2,3,4)              160.2899         calculate D2E/DX2 analytically  !
 ! A6    A(5,6,7)              153.7791         calculate D2E/DX2 analytically  !
 ! A7    A(2,7,6)              120.7026         calculate D2E/DX2 analytically  !
 ! A8    A(2,7,9)              115.7811         calculate D2E/DX2 analytically  !
 ! A9    A(6,7,9)              123.2134         calculate D2E/DX2 analytically  !
 ! D1    D(8,1,2,3)              0.553          calculate D2E/DX2 analytically  !
 ! D2    D(8,1,2,7)           -165.8463         calculate D2E/DX2 analytically  !
 ! D3    D(1,2,3,4)             34.0016         calculate D2E/DX2 analytically  !
 ! D4    D(7,2,3,4)           -158.6647         calculate D2E/DX2 analytically  !
 ! D5    D(1,2,7,6)            -26.1618         calculate D2E/DX2 analytically  !
 ! D6    D(1,2,7,9)            159.9601         calculate D2E/DX2 analytically  !
 ! D7    D(3,2,7,6)            166.6437         calculate D2E/DX2 analytically  !
 ! D8    D(3,2,7,9)             -7.2344         calculate D2E/DX2 analytically  !
 ! D9    D(5,6,7,2)            160.0639         calculate D2E/DX2 analytically  !
 ! D10   D(5,6,7,9)            -26.5272         calculate D2E/DX2 analytically  !
 --------------------------------------------------------------------------------
 Trust Radius=1.50D-01 FncErr=1.00D-07 GrdErr=1.00D-06 EigMax=2.50D+02 EigMin=1.00D-04
 Number of steps in this run=     37 maximum allowed number of steps=    100.
 Search for a saddle point of order  1.
 GradGradGradGradGradGradGradGradGradGradGradGradGradGradGradGradGradGrad

                          Input orientation:                          
 ---------------------------------------------------------------------
 Center     Atomic      Atomic             Coordinates (Angstroms)
 Number     Number       Type             X           Y           Z
 ---------------------------------------------------------------------
      1          7           0       -0.488504   -0.180545   -1.293018
      2          6           0       -0.447851   -0.899042   -0.222225
      3          7           0       -1.548385   -1.128747    0.504503
      4          7           0       -2.633545   -1.312963    0.764034
      5          8           0        3.065956   -1.342899   -0.344147
      6          7           0        1.875043   -1.331014   -0.227233
      7          6           0        0.812508   -1.263483    0.429555
      8          1           0       -1.396144    0.208410   -1.550747
      9          1           0        0.736997   -1.561681    1.461600
 ---------------------------------------------------------------------
                    Distance matrix (angstroms):
                    1          2          3          4          5
     1  N    0.000000
     2  C    1.290150   0.000000
     3  N    2.292055   1.338683   0.000000
     4  N    3.180414   2.433371   1.130869   0.000000
     5  O    3.858187   3.543828   4.696617   5.806313   0.000000
     6  N    2.836517   2.362723   3.506595   4.616308   1.196697
     7  C    2.415087   1.464971   2.365922   3.462601   2.383894
     8  H    1.020549   1.972481   2.456668   3.033801   4.875734
     9  H    3.316219   2.162920   2.515241   3.450944   2.955104
                    6          7          8          9
     6  N    0.000000
     7  C    1.250964   0.000000
     8  H    3.849958   3.311527   0.000000
     9  H    2.049515   1.076913   4.093623   0.000000
 Stoichiometry    C2H2N4O
 Framework group  C1[X(C2H2N4O)]
 Deg. of freedom    21
 Full point group                 C1      NOp   1
 Largest Abelian subgroup         C1      NOp   1
 Largest concise Abelian subgroup C1      NOp   1
                         Standard orientation:                         
 ---------------------------------------------------------------------
 Center     Atomic      Atomic             Coordinates (Angstroms)
 Number     Number       Type             X           Y           Z
 ---------------------------------------------------------------------
      1          7           0       -0.509662    1.545334    0.039321
      2          6           0       -0.561686    0.257387   -0.015207
      3          7           0       -1.729508   -0.395147    0.034414
      4          7           0       -2.825718   -0.628792   -0.115919
      5          8           0        2.959590   -0.140850   -0.042403
      6          7           0        1.764918   -0.142631   -0.111971
      7          6           0        0.625680   -0.582908    0.158592
      8          1           0       -1.399138    2.037308    0.130515
      9          1           0        0.438245   -1.608729    0.427482
 ---------------------------------------------------------------------
 Rotational constants (GHZ):           9.3039475           1.4330173           1.2474610
 Standard basis: def2TZVP (5D, 7F)
 There are   264 symmetry adapted cartesian basis functions of A   symmetry.
 There are   229 symmetry adapted basis functions of A   symmetry.
   229 basis functions,   373 primitive gaussians,   264 cartesian basis functions
    25 alpha electrons       25 beta electrons
       nuclear repulsion energy       256.5892989798 Hartrees.
 NAtoms=    9 NActive=    9 NUniq=    9 SFac= 1.00D+00 NAtFMM=   60 NAOKFM=F Big=F
 Integral buffers will be    131072 words long.
 Raffenetti 2 integral format.
 Two-electron integral symmetry is turned on.
 Nuclear repulsion after empirical dispersion term =      256.5867675374 Hartrees.
 One-electron integrals computed using PRISM.
   1 Symmetry operations used in ECPInt.
 ECPInt:  NShTT=    3655 NPrTT=   11788 LenC2=    3519 LenP2D=    9054.
 LDataN:  DoStor=T MaxTD1= 6 Len=  172
 NBasis=   229 RedAO= T EigKep=  1.76D-04  NBF=   229
 NBsUse=   229 1.00D-06 EigRej= -1.00D+00 NBFU=   229
 ExpMin= 9.52D-02 ExpMax= 2.70D+04 ExpMxC= 9.22D+02 IAcc=3 IRadAn=         5 AccDes= 0.00D+00
 Harris functional with IExCor= 4639 and IRadAn=       5 diagonalized for initial guess.
 HarFok:  IExCor= 4639 AccDes= 0.00D+00 IRadAn=         5 IDoV= 1 UseB2=F ITyADJ=14
 ICtDFT=  3500011 ScaDFX=  1.000000  1.000000  1.000000  1.000000
 FoFCou: FMM=F IPFlag=           0 FMFlag=      100000 FMFlg1=           0
         NFxFlg=           0 DoJE=T BraDBF=F KetDBF=T FulRan=T
         wScrn=  0.000000 ICntrl=       500 IOpCl=  0 I1Cent=   200000004 NGrid=           0
         NMat0=    1 NMatS0=      1 NMatT0=    0 NMatD0=    1 NMtDS0=    0 NMtDT0=    0
 Petite list used in FoFCou.
 Initial guess <Sx>= 0.0000 <Sy>= 0.0000 <Sz>= 0.0000 <S**2>=-0.0000 S=-0.0000
 Requested convergence on RMS density matrix=1.00D-08 within 128 cycles.
 Requested convergence on MAX density matrix=1.00D-06.
 Requested convergence on             energy=1.00D-06.
 No special actions if energy rises.
 Integral accuracy reduced to 1.0D-05 until final iterations.
 Initial convergence to 1.0D-05 achieved.  Increase integral accuracy.
 SCF Done:  E(UwB97XD) =  -371.396179492     A.U. after   26 cycles
            NFock= 26  Conv=0.29D-08     -V/T= 2.0036
 <Sx>= 0.0000 <Sy>= 0.0000 <Sz>= 0.0000 <S**2>=-0.0000 S=-0.0000
 <L.S>=  0.00000000000    
 Annihilation of the first spin contaminant:
 S**2 before annihilation    -0.0000,   after     0.0000
 DoSCS=F DFT=T ScalE2(SS,OS)=  1.000000  1.000000
 Range of M.O.s used for correlation:     1   229
 NBasis=   229 NAE=    25 NBE=    25 NFC=     0 NFV=     0
 NROrb=    229 NOA=    25 NOB=    25 NVA=   204 NVB=   204

 **** Warning!!: The largest alpha MO coefficient is  0.17042555D+02


 **** Warning!!: The largest beta MO coefficient is  0.17042555D+02

   1 Symmetry operations used in ECPInt.
 ECPInt:  NShTT=    3655 NPrTT=   11788 LenC2=    3519 LenP2D=    9054.
 LDataN:  DoStor=T MaxTD1= 7 Len=  274
 Symmetrizing basis deriv contribution to polar:
 IMax=3 JMax=2 DiffMx= 0.00D+00
 G2DrvN: will do    10 centers at a time, making    1 passes.
 Calling FoFCou, ICntrl=  3107 FMM=F I1Cent=   0 AccDes= 0.00D+00.
 End of G2Drv F.D. properties file   721 does not exist.
 End of G2Drv F.D. properties file   722 does not exist.
 End of G2Drv F.D. properties file   788 does not exist.
          IDoAtm=111111111
          Differentiating once with respect to electric field.
                with respect to dipole field.
          Differentiating once with respect to nuclear coordinates.
 CalDSu exits because no D1Ps are significant.
          There are    30 degrees of freedom in the 1st order CPHF.  IDoFFX=6 NUNeed=     3.
     27 vectors produced by pass  0 Test12= 3.40D-14 3.33D-09 XBig12= 9.17D+02 1.99D+01.
 AX will form    27 AO Fock derivatives at one time.
     27 vectors produced by pass  1 Test12= 3.40D-14 3.33D-09 XBig12= 2.13D+02 2.90D+00.
     27 vectors produced by pass  2 Test12= 3.40D-14 3.33D-09 XBig12= 5.86D+00 3.86D-01.
     27 vectors produced by pass  3 Test12= 3.40D-14 3.33D-09 XBig12= 2.28D-01 9.63D-02.
     27 vectors produced by pass  4 Test12= 3.40D-14 3.33D-09 XBig12= 4.43D-03 9.27D-03.
     27 vectors produced by pass  5 Test12= 3.40D-14 3.33D-09 XBig12= 4.70D-05 9.28D-04.
     27 vectors produced by pass  6 Test12= 3.40D-14 3.33D-09 XBig12= 3.76D-07 6.77D-05.
     22 vectors produced by pass  7 Test12= 3.40D-14 3.33D-09 XBig12= 2.66D-09 4.34D-06.
      6 vectors produced by pass  8 Test12= 3.40D-14 3.33D-09 XBig12= 1.93D-11 4.02D-07.
      3 vectors produced by pass  9 Test12= 3.40D-14 3.33D-09 XBig12= 5.70D-13 3.91D-07.
      1 vectors produced by pass 10 Test12= 3.40D-14 3.33D-09 XBig12= 2.61D-14 2.13D-08.
 InvSVY:  IOpt=1 It=  1 EMax= 6.44D-15
 Solved reduced A of dimension   221 with    30 vectors.
 Isotropic polarizability for W=    0.000000       94.65 Bohr**3.
 End of Minotr F.D. properties file   721 does not exist.
 End of Minotr F.D. properties file   722 does not exist.
 End of Minotr F.D. properties file   788 does not exist.

 **********************************************************************

            Population analysis using the SCF density.

 **********************************************************************

 Orbital symmetries:
 Alpha Orbitals:
       Occupied  (A) (A) (A) (A) (A) (A) (A) (A) (A) (A) (A) (A)
                 (A) (A) (A) (A) (A) (A) (A) (A) (A) (A) (A) (A)
                 (A)
       Virtual   (A) (A) (A) (A) (A) (A) (A) (A) (A) (A) (A) (A)
                 (A) (A) (A) (A) (A) (A) (A) (A) (A) (A) (A) (A)
                 (A) (A) (A) (A) (A) (A) (A) (A) (A) (A) (A) (A)
                 (A) (A) (A) (A) (A) (A) (A) (A) (A) (A) (A) (A)
                 (A) (A) (A) (A) (A) (A) (A) (A) (A) (A) (A) (A)
                 (A) (A) (A) (A) (A) (A) (A) (A) (A) (A) (A) (A)
                 (A) (A) (A) (A) (A) (A) (A) (A) (A) (A) (A) (A)
                 (A) (A) (A) (A) (A) (A) (A) (A) (A) (A) (A) (A)
                 (A) (A) (A) (A) (A) (A) (A) (A) (A) (A) (A) (A)
                 (A) (A) (A) (A) (A) (A) (A) (A) (A) (A) (A) (A)
                 (A) (A) (A) (A) (A) (A) (A) (A) (A) (A) (A) (A)
                 (A) (A) (A) (A) (A) (A) (A) (A) (A) (A) (A) (A)
                 (A) (A) (A) (A) (A) (A) (A) (A) (A) (A) (A) (A)
                 (A) (A) (A) (A) (A) (A) (A) (A) (A) (A) (A) (A)
                 (A) (A) (A) (A) (A) (A) (A) (A) (A) (A) (A) (A)
                 (A) (A) (A) (A) (A) (A) (A) (A) (A) (A) (A) (A)
                 (A) (A) (A) (A) (A) (A) (A) (A) (A) (A) (A) (A)
 Beta  Orbitals:
       Occupied  (A) (A) (A) (A) (A) (A) (A) (A) (A) (A) (A) (A)
                 (A) (A) (A) (A) (A) (A) (A) (A) (A) (A) (A) (A)
                 (A)
       Virtual   (A) (A) (A) (A) (A) (A) (A) (A) (A) (A) (A) (A)
                 (A) (A) (A) (A) (A) (A) (A) (A) (A) (A) (A) (A)
                 (A) (A) (A) (A) (A) (A) (A) (A) (A) (A) (A) (A)
                 (A) (A) (A) (A) (A) (A) (A) (A) (A) (A) (A) (A)
                 (A) (A) (A) (A) (A) (A) (A) (A) (A) (A) (A) (A)
                 (A) (A) (A) (A) (A) (A) (A) (A) (A) (A) (A) (A)
                 (A) (A) (A) (A) (A) (A) (A) (A) (A) (A) (A) (A)
                 (A) (A) (A) (A) (A) (A) (A) (A) (A) (A) (A) (A)
                 (A) (A) (A) (A) (A) (A) (A) (A) (A) (A) (A) (A)
                 (A) (A) (A) (A) (A) (A) (A) (A) (A) (A) (A) (A)
                 (A) (A) (A) (A) (A) (A) (A) (A) (A) (A) (A) (A)
                 (A) (A) (A) (A) (A) (A) (A) (A) (A) (A) (A) (A)
                 (A) (A) (A) (A) (A) (A) (A) (A) (A) (A) (A) (A)
                 (A) (A) (A) (A) (A) (A) (A) (A) (A) (A) (A) (A)
                 (A) (A) (A) (A) (A) (A) (A) (A) (A) (A) (A) (A)
                 (A) (A) (A) (A) (A) (A) (A) (A) (A) (A) (A) (A)
                 (A) (A) (A) (A) (A) (A) (A) (A) (A) (A) (A) (A)
 The electronic state is 1-A.
 Alpha  occ. eigenvalues --  -19.30798 -14.62706 -14.58617 -14.56019 -14.43670
 Alpha  occ. eigenvalues --  -10.41580 -10.35823  -1.28051  -1.26718  -1.07058
 Alpha  occ. eigenvalues --   -0.98578  -0.92293  -0.74209  -0.66942  -0.63875
 Alpha  occ. eigenvalues --   -0.63423  -0.61883  -0.59952  -0.57547  -0.57307
 Alpha  occ. eigenvalues --   -0.49821  -0.45584  -0.38948  -0.34377  -0.24277
 Alpha virt. eigenvalues --   -0.08542  -0.03806   0.03140   0.10274   0.14153
 Alpha virt. eigenvalues --    0.15106   0.18094   0.18807   0.24510   0.26970
 Alpha virt. eigenvalues --    0.28159   0.30170   0.31746   0.32498   0.34221
 Alpha virt. eigenvalues --    0.35734   0.38460   0.40386   0.41495   0.44395
 Alpha virt. eigenvalues --    0.45426   0.46516   0.48196   0.48901   0.51068
 Alpha virt. eigenvalues --    0.53367   0.54497   0.54887   0.55441   0.56959
 Alpha virt. eigenvalues --    0.58110   0.59921   0.61379   0.65092   0.66035
 Alpha virt. eigenvalues --    0.67840   0.70401   0.74209   0.78767   0.79640
 Alpha virt. eigenvalues --    0.81088   0.83355   0.86603   0.90654   0.92518
 Alpha virt. eigenvalues --    0.98349   0.99764   1.01951   1.04676   1.10852
 Alpha virt. eigenvalues --    1.11179   1.15209   1.19135   1.24956   1.27783
 Alpha virt. eigenvalues --    1.30499   1.32693   1.34240   1.37992   1.43316
 Alpha virt. eigenvalues --    1.44065   1.47333   1.50912   1.51576   1.53588
 Alpha virt. eigenvalues --    1.55700   1.58445   1.61496   1.65583   1.66100
 Alpha virt. eigenvalues --    1.69369   1.71369   1.75188   1.78710   1.82687
 Alpha virt. eigenvalues --    1.84673   1.88846   1.90283   1.92589   1.97292
 Alpha virt. eigenvalues --    2.02409   2.05389   2.08090   2.12108   2.13524
 Alpha virt. eigenvalues --    2.14834   2.18948   2.22598   2.25067   2.25973
 Alpha virt. eigenvalues --    2.29204   2.34344   2.37197   2.39617   2.43877
 Alpha virt. eigenvalues --    2.47774   2.49415   2.56618   2.61859   2.64243
 Alpha virt. eigenvalues --    2.68017   2.71058   2.75507   2.82349   2.85271
 Alpha virt. eigenvalues --    2.89355   2.93115   2.94456   2.98161   2.99302
 Alpha virt. eigenvalues --    3.02442   3.09006   3.12284   3.13863   3.16542
 Alpha virt. eigenvalues --    3.18826   3.22304   3.25289   3.29463   3.37059
 Alpha virt. eigenvalues --    3.38359   3.43173   3.48875   3.50552   3.56071
 Alpha virt. eigenvalues --    3.59707   3.62893   3.66035   3.71204   3.73475
 Alpha virt. eigenvalues --    3.74826   3.78888   3.79409   3.83123   3.86728
 Alpha virt. eigenvalues --    3.90504   3.96822   4.03033   4.03748   4.08640
 Alpha virt. eigenvalues --    4.13474   4.20306   4.22821   4.29074   4.30778
 Alpha virt. eigenvalues --    4.38592   4.38778   4.43053   4.43787   4.48780
 Alpha virt. eigenvalues --    4.51715   4.56398   4.61590   4.63418   4.64280
 Alpha virt. eigenvalues --    4.69986   4.72000   4.74932   4.76969   4.79295
 Alpha virt. eigenvalues --    4.80841   4.83589   4.90742   4.93695   4.98653
 Alpha virt. eigenvalues --    5.04870   5.06721   5.08153   5.11645   5.13160
 Alpha virt. eigenvalues --    5.18252   5.21591   5.22862   5.23508   5.28508
 Alpha virt. eigenvalues --    5.39897   5.40434   5.45786   5.52862   5.60849
 Alpha virt. eigenvalues --    5.76623   5.78465   5.79703   5.87048   6.04658
 Alpha virt. eigenvalues --    6.34603   6.35369   6.42455   6.56958   6.60427
 Alpha virt. eigenvalues --    6.65857   6.72832   6.91737   7.05292   7.15533
 Alpha virt. eigenvalues --    7.37486   7.45173  22.92359  23.31042  31.75202
 Alpha virt. eigenvalues --   32.08074  32.63247  32.98624  44.19987
  Beta  occ. eigenvalues --  -19.30798 -14.62706 -14.58617 -14.56019 -14.43670
  Beta  occ. eigenvalues --  -10.41580 -10.35823  -1.28051  -1.26718  -1.07058
  Beta  occ. eigenvalues --   -0.98578  -0.92293  -0.74209  -0.66942  -0.63875
  Beta  occ. eigenvalues --   -0.63423  -0.61883  -0.59952  -0.57547  -0.57307
  Beta  occ. eigenvalues --   -0.49821  -0.45584  -0.38948  -0.34377  -0.24277
  Beta virt. eigenvalues --   -0.08542  -0.03806   0.03140   0.10274   0.14153
  Beta virt. eigenvalues --    0.15106   0.18094   0.18807   0.24510   0.26970
  Beta virt. eigenvalues --    0.28159   0.30170   0.31746   0.32498   0.34221
  Beta virt. eigenvalues --    0.35734   0.38460   0.40386   0.41495   0.44395
  Beta virt. eigenvalues --    0.45426   0.46516   0.48196   0.48901   0.51068
  Beta virt. eigenvalues --    0.53367   0.54497   0.54887   0.55441   0.56959
  Beta virt. eigenvalues --    0.58110   0.59921   0.61379   0.65092   0.66035
  Beta virt. eigenvalues --    0.67840   0.70401   0.74209   0.78767   0.79640
  Beta virt. eigenvalues --    0.81088   0.83355   0.86603   0.90654   0.92518
  Beta virt. eigenvalues --    0.98349   0.99764   1.01951   1.04676   1.10852
  Beta virt. eigenvalues --    1.11179   1.15209   1.19135   1.24956   1.27783
  Beta virt. eigenvalues --    1.30499   1.32693   1.34240   1.37992   1.43316
  Beta virt. eigenvalues --    1.44065   1.47333   1.50912   1.51576   1.53588
  Beta virt. eigenvalues --    1.55700   1.58445   1.61496   1.65583   1.66100
  Beta virt. eigenvalues --    1.69369   1.71369   1.75188   1.78710   1.82687
  Beta virt. eigenvalues --    1.84673   1.88846   1.90283   1.92589   1.97292
  Beta virt. eigenvalues --    2.02409   2.05389   2.08090   2.12108   2.13524
  Beta virt. eigenvalues --    2.14834   2.18948   2.22598   2.25067   2.25973
  Beta virt. eigenvalues --    2.29204   2.34344   2.37197   2.39617   2.43877
  Beta virt. eigenvalues --    2.47774   2.49415   2.56618   2.61859   2.64243
  Beta virt. eigenvalues --    2.68017   2.71058   2.75507   2.82349   2.85271
  Beta virt. eigenvalues --    2.89355   2.93115   2.94456   2.98161   2.99302
  Beta virt. eigenvalues --    3.02442   3.09006   3.12284   3.13863   3.16542
  Beta virt. eigenvalues --    3.18826   3.22304   3.25289   3.29463   3.37059
  Beta virt. eigenvalues --    3.38359   3.43173   3.48875   3.50552   3.56071
  Beta virt. eigenvalues --    3.59707   3.62893   3.66035   3.71204   3.73475
  Beta virt. eigenvalues --    3.74826   3.78888   3.79409   3.83123   3.86728
  Beta virt. eigenvalues --    3.90504   3.96822   4.03033   4.03748   4.08640
  Beta virt. eigenvalues --    4.13474   4.20306   4.22821   4.29074   4.30778
  Beta virt. eigenvalues --    4.38592   4.38778   4.43053   4.43787   4.48780
  Beta virt. eigenvalues --    4.51715   4.56398   4.61590   4.63418   4.64280
  Beta virt. eigenvalues --    4.69986   4.72000   4.74932   4.76969   4.79295
  Beta virt. eigenvalues --    4.80841   4.83589   4.90742   4.93695   4.98653
  Beta virt. eigenvalues --    5.04870   5.06721   5.08153   5.11645   5.13160
  Beta virt. eigenvalues --    5.18252   5.21591   5.22862   5.23508   5.28508
  Beta virt. eigenvalues --    5.39897   5.40434   5.45786   5.52862   5.60849
  Beta virt. eigenvalues --    5.76623   5.78465   5.79703   5.87048   6.04658
  Beta virt. eigenvalues --    6.34603   6.35369   6.42455   6.56958   6.60427
  Beta virt. eigenvalues --    6.65857   6.72832   6.91737   7.05292   7.15533
  Beta virt. eigenvalues --    7.37486   7.45173  22.92359  23.31042  31.75202
  Beta virt. eigenvalues --   32.08074  32.63247  32.98624  44.19987
          Condensed to atoms (all electrons):
               1          2          3          4          5          6
     1  N    6.553505   0.684317  -0.088408  -0.001461  -0.000829  -0.001398
     2  C    0.684317   4.856361   0.306283  -0.059213   0.005624  -0.090631
     3  N   -0.088408   0.306283   6.299339   0.396456  -0.000186   0.001017
     4  N   -0.001461  -0.059213   0.396456   6.727378  -0.000005   0.000750
     5  O   -0.000829   0.005624  -0.000186  -0.000005   8.077725   0.260635
     6  N   -0.001398  -0.090631   0.001017   0.000750   0.260635   6.055231
     7  C   -0.096189   0.258186  -0.040785   0.007118  -0.064615   0.595461
     8  H    0.347680  -0.059964  -0.011025   0.000911   0.000023  -0.000007
     9  H   -0.003272  -0.147140   0.024921   0.004705   0.002853  -0.026848
               7          8          9
     1  N   -0.096189   0.347680  -0.003272
     2  C    0.258186  -0.059964  -0.147140
     3  N   -0.040785  -0.011025   0.024921
     4  N    0.007118   0.000911   0.004705
     5  O   -0.064615   0.000023   0.002853
     6  N    0.595461  -0.000007  -0.026848
     7  C    5.054209   0.014330   0.434475
     8  H    0.014330   0.487227  -0.000393
     9  H    0.434475  -0.000393   0.582279
          Atomic-Atomic Spin Densities.
               1          2          3          4          5          6
     1  N   -0.000000   0.000000   0.000000  -0.000000   0.000000  -0.000000
     2  C    0.000000  -0.000000  -0.000000   0.000000   0.000000  -0.000000
     3  N    0.000000  -0.000000  -0.000000   0.000000  -0.000000   0.000000
     4  N   -0.000000   0.000000   0.000000  -0.000000   0.000000  -0.000000
     5  O    0.000000   0.000000  -0.000000   0.000000   0.000000  -0.000000
     6  N   -0.000000  -0.000000   0.000000  -0.000000  -0.000000   0.000000
     7  C    0.000000   0.000000  -0.000000  -0.000000  -0.000000   0.000000
     8  H   -0.000000  -0.000000  -0.000000  -0.000000   0.000000  -0.000000
     9  H    0.000000  -0.000000   0.000000   0.000000   0.000000  -0.000000
               7          8          9
     1  N    0.000000  -0.000000   0.000000
     2  C    0.000000  -0.000000  -0.000000
     3  N   -0.000000  -0.000000   0.000000
     4  N   -0.000000  -0.000000   0.000000
     5  O   -0.000000   0.000000   0.000000
     6  N    0.000000  -0.000000  -0.000000
     7  C    0.000000  -0.000000  -0.000000
     8  H   -0.000000   0.000000  -0.000000
     9  H   -0.000000  -0.000000   0.000000
 Mulliken charges and spin densities:
               1          2
     1  N   -0.393944  -0.000000
     2  C    0.246178  -0.000000
     3  N    0.112389  -0.000000
     4  N   -0.076638  -0.000000
     5  O   -0.281224   0.000000
     6  N    0.205791   0.000000
     7  C   -0.162190   0.000000
     8  H    0.221218   0.000000
     9  H    0.128421   0.000000
 Sum of Mulliken charges =  -0.00000   0.00000
 Mulliken charges and spin densities with hydrogens summed into heavy atoms:
               1          2
     1  N   -0.172725  -0.000000
     2  C    0.246178  -0.000000
     3  N    0.112389  -0.000000
     4  N   -0.076638  -0.000000
     5  O   -0.281224   0.000000
     6  N    0.205791   0.000000
     7  C   -0.033769   0.000000
 APT charges:
               1
     1  N   -0.513046
     2  C   -0.026982
     3  N    1.433937
     4  N   -0.991188
     5  O   -1.309108
     6  N    1.263623
     7  C   -0.265783
     8  H    0.258603
     9  H    0.149944
 Sum of APT charges =   0.00000
 APT charges with hydrogens summed into heavy atoms:
               1
     1  N   -0.254443
     2  C   -0.026982
     3  N    1.433937
     4  N   -0.991188
     5  O   -1.309108
     6  N    1.263623
     7  C   -0.115839
 Electronic spatial extent (au):  <R**2>=            832.0842
 Charge=             -0.0000 electrons
 Dipole moment (field-independent basis, Debye):
    X=             -3.9416    Y=             -1.7948    Z=              0.5001  Tot=              4.3598
 Quadrupole moment (field-independent basis, Debye-Ang):
   XX=            -45.0383   YY=            -37.9899   ZZ=            -39.3005
   XY=             -3.4935   XZ=             -0.0101   YZ=              0.1587
 Traceless Quadrupole moment (field-independent basis, Debye-Ang):
   XX=             -4.2621   YY=              2.7863   ZZ=              1.4757
   XY=             -3.4935   XZ=             -0.0101   YZ=              0.1587
 Octapole moment (field-independent basis, Debye-Ang**2):
  XXX=            -16.3984  YYY=             -5.1552  ZZZ=             -0.3957  XYY=             -3.7365
  XXY=              8.0008  XXZ=              1.6470  XZZ=              1.5730  YZZ=             -0.9936
  YYZ=              1.1831  XYZ=              0.2333
 Hexadecapole moment (field-independent basis, Debye-Ang**3):
 XXXX=           -920.9943 YYYY=           -169.0124 ZZZZ=            -39.9264 XXXY=            -18.2483
 XXXZ=             -2.6389 YYYX=            -16.1490 YYYZ=              0.5779 ZZZX=             -0.8085
 ZZZY=              0.8361 XXYY=           -150.8881 XXZZ=           -141.1978 YYZZ=            -37.7033
 XXYZ=              2.0603 YYXZ=             -1.2194 ZZXY=             -0.4816
 N-N= 2.565867675374D+02 E-N=-1.381789049726D+03  KE= 3.700625564846D+02
  Exact polarizability: 189.779  -9.795  62.199   0.855  -2.205  31.972
 Approx polarizability: 357.952  -4.813  74.549  -4.725  -2.005  37.706
                          Isotropic Fermi Contact Couplings
        Atom                 a.u.       MegaHertz       Gauss      10(-4) cm-1
     1  N(14)             -0.00000      -0.00000      -0.00000      -0.00000
     2  C(13)              0.00000       0.00000       0.00000       0.00000
     3  N(14)             -0.00000      -0.00000      -0.00000      -0.00000
     4  N(14)             -0.00000      -0.00000      -0.00000      -0.00000
     5  O(17)              0.00000      -0.00000      -0.00000      -0.00000
     6  N(14)              0.00000       0.00000       0.00000       0.00000
     7  C(13)              0.00000       0.00000       0.00000       0.00000
     8  H(1)               0.00000       0.00000       0.00000       0.00000
     9  H(1)               0.00000       0.00000       0.00000       0.00000
 --------------------------------------------------------
       Center         ----  Spin Dipole Couplings  ----
                      3XX-RR        3YY-RR        3ZZ-RR
 --------------------------------------------------------
     1   Atom        0.000000      0.000000     -0.000000
     2   Atom        0.000000      0.000000     -0.000000
     3   Atom        0.000000      0.000000     -0.000000
     4   Atom        0.000000      0.000000     -0.000000
     5   Atom       -0.000000      0.000000     -0.000000
     6   Atom       -0.000000      0.000000     -0.000000
     7   Atom        0.000000     -0.000000      0.000000
     8   Atom       -0.000000      0.000000      0.000000
     9   Atom       -0.000000      0.000000     -0.000000
 --------------------------------------------------------
                        XY            XZ            YZ
 --------------------------------------------------------
     1   Atom       -0.000000     -0.000000      0.000000
     2   Atom       -0.000000     -0.000000     -0.000000
     3   Atom       -0.000000     -0.000000     -0.000000
     4   Atom       -0.000000      0.000000      0.000000
     5   Atom       -0.000000      0.000000     -0.000000
     6   Atom       -0.000000      0.000000     -0.000000
     7   Atom        0.000000     -0.000000     -0.000000
     8   Atom        0.000000      0.000000     -0.000000
     9   Atom        0.000000     -0.000000      0.000000
 --------------------------------------------------------


 ---------------------------------------------------------------------------------
              Anisotropic Spin Dipole Couplings in Principal Axis System
 ---------------------------------------------------------------------------------

       Atom             a.u.   MegaHertz   Gauss  10(-4) cm-1        Axes

              Baa    -0.0000    -0.000    -0.000    -0.000  0.0666 -0.0366  0.9971
     1 N(14)  Bbb     0.0000     0.000     0.000     0.000  0.5386  0.8426 -0.0051
              Bcc     0.0000     0.000     0.000     0.000  0.8399 -0.5374 -0.0759
 
              Baa    -0.0000    -0.000    -0.000    -0.000  0.3988  0.4007  0.8249
     2 C(13)  Bbb     0.0000     0.000     0.000     0.000  0.2728  0.8069 -0.5239
              Bcc     0.0000     0.000     0.000     0.000  0.8755 -0.4339 -0.2125
 
              Baa    -0.0000    -0.000    -0.000    -0.000  0.0067  0.0139  0.9999
     3 N(14)  Bbb     0.0000     0.000     0.000     0.000  0.9630  0.2692 -0.0102
              Bcc     0.0000     0.000     0.000     0.000 -0.2693  0.9630 -0.0115
 
              Baa    -0.0000    -0.000    -0.000    -0.000 -0.0838 -0.0534  0.9951
     4 N(14)  Bbb     0.0000     0.000     0.000     0.000 -0.0682  0.9965  0.0477
              Bcc     0.0000     0.000     0.000     0.000  0.9941  0.0638  0.0872
 
              Baa    -0.0000     0.000     0.000     0.000 -0.0855  0.2240  0.9708
     5 O(17)  Bbb    -0.0000     0.000     0.000     0.000  0.9855  0.1626  0.0492
              Bcc     0.0000    -0.000    -0.000    -0.000 -0.1469  0.9609 -0.2347
 
              Baa    -0.0000    -0.000    -0.000    -0.000  0.1067  0.3742  0.9212
     6 N(14)  Bbb    -0.0000    -0.000    -0.000    -0.000  0.9824  0.1031 -0.1556
              Bcc     0.0000     0.000     0.000     0.000 -0.1532  0.9216 -0.3566
 
              Baa    -0.0000    -0.000    -0.000    -0.000 -0.4402  0.8637 -0.2456
     7 C(13)  Bbb    -0.0000    -0.000    -0.000    -0.000  0.5549  0.4767  0.6818
              Bcc     0.0000     0.000     0.000     0.000  0.7060  0.1638 -0.6890
 
              Baa    -0.0000    -0.000    -0.000    -0.000  0.8653 -0.4971 -0.0646
     8 H(1)   Bbb     0.0000     0.000     0.000     0.000  0.0723 -0.0038  0.9974
              Bcc     0.0000     0.000     0.000     0.000  0.4960  0.8677 -0.0327
 
              Baa    -0.0000    -0.000    -0.000    -0.000  0.7909 -0.4099  0.4543
     9 H(1)   Bbb    -0.0000    -0.000    -0.000    -0.000 -0.3318  0.3366  0.8813
              Bcc     0.0000     0.000     0.000     0.000  0.5142  0.8477 -0.1303
 

 ---------------------------------------------------------------------------------

   1 Symmetry operations used in ECPInt.
 ECPInt:  NShTT=    3655 NPrTT=   11788 LenC2=    3519 LenP2D=    9054.
 LDataN:  DoStor=T MaxTD1= 8 Len=  415
 Calling FoFJK, ICntrl=    100127 FMM=F ISym2X=0 I1Cent= 0 IOpClX= 1 NMat=1 NMatS=1 NMatT=0.
 ***** Axes restored to original set *****
 -------------------------------------------------------------------
 Center     Atomic                   Forces (Hartrees/Bohr)
 Number     Number              X              Y              Z
 -------------------------------------------------------------------
      1        7          -0.004643979    0.009085427   -0.005473319
      2        6           0.042945840    0.012812545   -0.020557637
      3        7          -0.051981390   -0.001283740    0.019725656
      4        7           0.023372016   -0.004078126   -0.000241375
      5        8           0.002797617    0.001280573    0.018102381
      6        7          -0.002187963   -0.002380934   -0.043122000
      7        6          -0.013663834   -0.005706651    0.014389310
      8        1           0.003601130   -0.008228037    0.002405537
      9        1          -0.000239438   -0.001501056    0.014771446
 -------------------------------------------------------------------
 Cartesian Forces:  Max     0.051981390 RMS     0.018420351
 FormGI is forming the generalized inverse of G from B-inverse, IUseBI=4.

 GradGradGradGradGradGradGradGradGradGradGradGradGradGradGradGradGradGrad
 Berny optimization.
 Internal  Forces:  Max     0.041438521 RMS     0.013159132
 Search for a saddle point.
 Step number   1 out of a maximum of   37
 All quantities printed in internal units (Hartrees-Bohrs-Radians)
 Swapping is turned off.
 Second derivative matrix not updated -- analytic derivatives used.
 ITU=  0
     Eigenvalues ---   -0.06806  -0.00757   0.00891   0.01481   0.01685
     Eigenvalues ---    0.01938   0.02687   0.04776   0.10152   0.12682
     Eigenvalues ---    0.14058   0.18432   0.18920   0.32031   0.36266
     Eigenvalues ---    0.41976   0.43924   0.65619   0.70058   0.80079
     Eigenvalues ---    1.15477
 Eigenvectors required to have negative eigenvalues:
                          A6        R7        A3        R4        D3
   1                    0.90534  -0.17756  -0.16824   0.16066   0.12568
                          D2        A2        R3        D7        A7
   1                    0.11525   0.10829  -0.09609   0.08206   0.07693
 RFO step:  Lambda0=2.666089069D-02 Lambda=-1.70032339D-02.
 Linear search not attempted -- option 19 set.
 Maximum step size (   0.150) exceeded in Quadratic search.
    -- Step size scaled by   0.295
 Iteration  1 RMS(Cart)=  0.03889676 RMS(Int)=  0.00322193
 Iteration  2 RMS(Cart)=  0.00284027 RMS(Int)=  0.00022202
 Iteration  3 RMS(Cart)=  0.00000600 RMS(Int)=  0.00022192
 Iteration  4 RMS(Cart)=  0.00000000 RMS(Int)=  0.00022192
 Variable       Old X    -DE/DX   Delta X   Delta X   Delta X     New X
                                 (Linear)    (Quad)   (Total)
    R1        2.43803   0.00306   0.00000  -0.00432  -0.00432   2.43371
    R2        1.92856  -0.00695   0.00000  -0.00415  -0.00415   1.92440
    R3        2.52974   0.03502   0.00000   0.02314   0.02314   2.55288
    R4        2.76839  -0.00753   0.00000   0.02024   0.02024   2.78863
    R5        2.13703  -0.02182   0.00000   0.00208   0.00208   2.13911
    R6        2.26143   0.00100   0.00000  -0.00587  -0.00587   2.25556
    R7        2.36398   0.01371   0.00000  -0.02482  -0.02482   2.33916
    R8        2.03507   0.01459   0.00000   0.01614   0.01614   2.05121
    A1        2.03742  -0.00770   0.00000  -0.01404  -0.01404   2.02338
    A2        2.11791   0.00208   0.00000   0.02060   0.02054   2.13845
    A3        2.13520   0.01326   0.00000   0.00486   0.00483   2.14004
    A4        2.00762  -0.01449   0.00000  -0.02855  -0.02856   1.97906
    A5        2.79759   0.01201   0.00000  -0.02638  -0.02638   2.77121
    A6        2.68395  -0.04144   0.00000   0.13173   0.13173   2.81569
    A7        2.10666  -0.00581   0.00000   0.01739   0.01684   2.12350
    A8        2.02076   0.00333   0.00000  -0.02165  -0.02220   1.99856
    A9        2.15048   0.00258   0.00000   0.01014   0.00960   2.16008
    D1        0.00965  -0.00278   0.00000   0.00043   0.00031   0.00997
    D2       -2.89456  -0.00535   0.00000   0.02025   0.02037  -2.87419
    D3        0.59344  -0.00022   0.00000   0.09592   0.09594   0.68938
    D4       -2.76922   0.00558   0.00000   0.08119   0.08117  -2.68805
    D5       -0.45661   0.00140   0.00000   0.01709   0.01699  -0.43962
    D6        2.79183   0.00023   0.00000  -0.04265  -0.04239   2.74944
    D7        2.90848  -0.00284   0.00000   0.02983   0.02958   2.93806
    D8       -0.12626  -0.00401   0.00000  -0.02991  -0.02980  -0.15607
    D9        2.79364  -0.00034   0.00000  -0.03500  -0.03535   2.75829
   D10       -0.46299   0.00092   0.00000   0.02738   0.02773  -0.43525
         Item               Value     Threshold  Converged?
 Maximum Force            0.041439     0.000450     NO 
 RMS     Force            0.013159     0.000300     NO 
 Maximum Displacement     0.124661     0.001800     NO 
 RMS     Displacement     0.039202     0.001200     NO 
 Predicted change in Energy= 3.792064D-03
 GradGradGradGradGradGradGradGradGradGradGradGradGradGradGradGradGradGrad

                          Input orientation:                          
 ---------------------------------------------------------------------
 Center     Atomic      Atomic             Coordinates (Angstroms)
 Number     Number       Type             X           Y           Z
 ---------------------------------------------------------------------
      1          7           0       -0.474833   -0.177607   -1.303200
      2          6           0       -0.446834   -0.898897   -0.236637
      3          7           0       -1.545995   -1.127244    0.514830
      4          7           0       -2.629768   -1.341683    0.761417
      5          8           0        3.055342   -1.344775   -0.410115
      6          7           0        1.884620   -1.333244   -0.177873
      7          6           0        0.811436   -1.275227    0.436242
      8          1           0       -1.379057    0.222691   -1.546466
      9          1           0        0.701163   -1.535978    1.484126
 ---------------------------------------------------------------------
                    Distance matrix (angstroms):
                    1          2          3          4          5
     1  N    0.000000
     2  C    1.287866   0.000000
     3  N    2.313965   1.350926   0.000000
     4  N    3.203351   2.440773   1.131968   0.000000
     5  O    3.823875   3.534705   4.698420   5.804565   0.000000
     6  N    2.858124   2.372296   3.505909   4.611077   1.193591
     7  C    2.425885   1.475681   2.363378   3.457172   2.399223
     8  H    1.018350   1.960268   2.469643   3.055793   4.838609
     9  H    3.316221   2.164439   2.481193   3.413966   3.027683
                    6          7          8          9
     6  N    0.000000
     7  C    1.237832   0.000000
     8  H    3.865950   3.312574   0.000000
     9  H    2.050344   1.085455   4.074889   0.000000
 Stoichiometry    C2H2N4O
 Framework group  C1[X(C2H2N4O)]
 Deg. of freedom    21
 Full point group                 C1      NOp   1
 Largest Abelian subgroup         C1      NOp   1
 Largest concise Abelian subgroup C1      NOp   1
                         Standard orientation:                         
 ---------------------------------------------------------------------
 Center     Atomic      Atomic             Coordinates (Angstroms)
 Number     Number       Type             X           Y           Z
 ---------------------------------------------------------------------
      1          7           0       -0.484607    1.557640    0.039023
      2          6           0       -0.559380    0.273204   -0.017818
      3          7           0       -1.734831   -0.389489    0.046642
      4          7           0       -2.828028   -0.619310   -0.136265
      5          8           0        2.953919   -0.111693   -0.070001
      6          7           0        1.763849   -0.202864   -0.079068
      7          6           0        0.616355   -0.600624    0.160244
      8          1           0       -1.369137    2.050933    0.145360
      9          1           0        0.381253   -1.614706    0.467776
 ---------------------------------------------------------------------
 Rotational constants (GHZ):           9.1348865           1.4358974           1.2471206
 Standard basis: def2TZVP (5D, 7F)
 There are   264 symmetry adapted cartesian basis functions of A   symmetry.
 There are   229 symmetry adapted basis functions of A   symmetry.
   229 basis functions,   373 primitive gaussians,   264 cartesian basis functions
    25 alpha electrons       25 beta electrons
       nuclear repulsion energy       256.2875793012 Hartrees.
 NAtoms=    9 NActive=    9 NUniq=    9 SFac= 1.00D+00 NAtFMM=   60 NAOKFM=F Big=F
 Integral buffers will be    131072 words long.
 Raffenetti 2 integral format.
 Two-electron integral symmetry is turned on.
 Nuclear repulsion after empirical dispersion term =      256.2850404222 Hartrees.
 One-electron integrals computed using PRISM.
   1 Symmetry operations used in ECPInt.
 ECPInt:  NShTT=    3655 NPrTT=   11788 LenC2=    3520 LenP2D=    9051.
 LDataN:  DoStor=T MaxTD1= 6 Len=  172
 NBasis=   229 RedAO= T EigKep=  1.78D-04  NBF=   229
 NBsUse=   229 1.00D-06 EigRej= -1.00D+00 NBFU=   229
 Initial guess from the checkpoint file:  "/scratch/23935644/Gau-15598.chk"
 B after Tr=     0.000000   -0.000000    0.000000
         Rot=    0.999997    0.000145    0.000112    0.002386 Ang=   0.27 deg.
 Initial guess <Sx>= 0.0000 <Sy>= 0.0000 <Sz>= 0.0000 <S**2>=-0.0000 S=-0.0000
 ExpMin= 9.52D-02 ExpMax= 2.70D+04 ExpMxC= 9.22D+02 IAcc=2 IRadAn=         4 AccDes= 0.00D+00
 Harris functional with IExCor= 4639 and IRadAn=       4 diagonalized for initial guess.
 HarFok:  IExCor= 4639 AccDes= 0.00D+00 IRadAn=         4 IDoV= 1 UseB2=F ITyADJ=14
 ICtDFT=  3500011 ScaDFX=  1.000000  1.000000  1.000000  1.000000
 FoFCou: FMM=F IPFlag=           0 FMFlag=      100000 FMFlg1=           0
         NFxFlg=           0 DoJE=T BraDBF=F KetDBF=T FulRan=T
         wScrn=  0.000000 ICntrl=       500 IOpCl=  0 I1Cent=   200000004 NGrid=           0
         NMat0=    1 NMatS0=      1 NMatT0=    0 NMatD0=    1 NMtDS0=    0 NMtDT0=    0
 Petite list used in FoFCou.
 Requested convergence on RMS density matrix=1.00D-08 within 128 cycles.
 Requested convergence on MAX density matrix=1.00D-06.
 Requested convergence on             energy=1.00D-06.
 No special actions if energy rises.
 Integral accuracy reduced to 1.0D-05 until final iterations.
 Initial convergence to 1.0D-05 achieved.  Increase integral accuracy.
 SCF Done:  E(UwB97XD) =  -371.392499819     A.U. after   21 cycles
            NFock= 21  Conv=0.62D-08     -V/T= 2.0036
 <Sx>= 0.0000 <Sy>= 0.0000 <Sz>= 0.0000 <S**2>= 0.0000 S= 0.0000
 <L.S>=  0.00000000000    
 Annihilation of the first spin contaminant:
 S**2 before annihilation     0.0000,   after     0.0000
 DoSCS=F DFT=T ScalE2(SS,OS)=  1.000000  1.000000
 Range of M.O.s used for correlation:     1   229
 NBasis=   229 NAE=    25 NBE=    25 NFC=     0 NFV=     0
 NROrb=    229 NOA=    25 NOB=    25 NVA=   204 NVB=   204

 **** Warning!!: The largest alpha MO coefficient is  0.16685726D+02


 **** Warning!!: The largest beta MO coefficient is  0.16685728D+02

   1 Symmetry operations used in ECPInt.
 ECPInt:  NShTT=    3655 NPrTT=   11788 LenC2=    3520 LenP2D=    9051.
 LDataN:  DoStor=T MaxTD1= 7 Len=  274
 Symmetrizing basis deriv contribution to polar:
 IMax=3 JMax=2 DiffMx= 0.00D+00
 G2DrvN: will do    10 centers at a time, making    1 passes.
 Calling FoFCou, ICntrl=  3107 FMM=F I1Cent=   0 AccDes= 0.00D+00.
 End of G2Drv F.D. properties file   721 does not exist.
 End of G2Drv F.D. properties file   722 does not exist.
 End of G2Drv F.D. properties file   788 does not exist.
          IDoAtm=111111111
          Differentiating once with respect to electric field.
                with respect to dipole field.
          Differentiating once with respect to nuclear coordinates.
 CalDSu exits because no D1Ps are significant.
          There are    30 degrees of freedom in the 1st order CPHF.  IDoFFX=6 NUNeed=     3.
     27 vectors produced by pass  0 Test12= 3.40D-14 3.33D-09 XBig12= 9.32D+02 2.01D+01.
 AX will form    27 AO Fock derivatives at one time.
     27 vectors produced by pass  1 Test12= 3.40D-14 3.33D-09 XBig12= 2.22D+02 2.96D+00.
     27 vectors produced by pass  2 Test12= 3.40D-14 3.33D-09 XBig12= 5.96D+00 3.69D-01.
     27 vectors produced by pass  3 Test12= 3.40D-14 3.33D-09 XBig12= 2.04D-01 9.41D-02.
     27 vectors produced by pass  4 Test12= 3.40D-14 3.33D-09 XBig12= 3.73D-03 9.29D-03.
     27 vectors produced by pass  5 Test12= 3.40D-14 3.33D-09 XBig12= 4.64D-05 1.50D-03.
     27 vectors produced by pass  6 Test12= 3.40D-14 3.33D-09 XBig12= 6.72D-07 8.93D-05.
     23 vectors produced by pass  7 Test12= 3.40D-14 3.33D-09 XBig12= 5.94D-09 1.16D-05.
      9 vectors produced by pass  8 Test12= 3.40D-14 3.33D-09 XBig12= 5.54D-11 8.68D-07.
      3 vectors produced by pass  9 Test12= 3.40D-14 3.33D-09 XBig12= 5.10D-13 9.96D-08.
      2 vectors produced by pass 10 Test12= 3.40D-14 3.33D-09 XBig12= 1.68D-14 2.97D-08.
      1 vectors produced by pass 11 Test12= 3.40D-14 3.33D-09 XBig12= 5.87D-16 4.40D-09.
 InvSVY:  IOpt=1 It=  1 EMax= 4.36D-15
 Solved reduced A of dimension   227 with    30 vectors.
 Isotropic polarizability for W=    0.000000       94.94 Bohr**3.
 End of Minotr F.D. properties file   721 does not exist.
 End of Minotr F.D. properties file   722 does not exist.
 End of Minotr F.D. properties file   788 does not exist.
   1 Symmetry operations used in ECPInt.
 ECPInt:  NShTT=    3655 NPrTT=   11788 LenC2=    3520 LenP2D=    9051.
 LDataN:  DoStor=T MaxTD1= 8 Len=  415
 Calling FoFJK, ICntrl=    100127 FMM=F ISym2X=0 I1Cent= 0 IOpClX= 1 NMat=1 NMatS=1 NMatT=0.
 ***** Axes restored to original set *****
 -------------------------------------------------------------------
 Center     Atomic                   Forces (Hartrees/Bohr)
 Number     Number              X              Y              Z
 -------------------------------------------------------------------
      1        7          -0.004009118    0.007558412   -0.002201483
      2        6           0.034440399    0.005990172   -0.018229255
      3        7          -0.040861028    0.005797940    0.017014869
      4        7           0.018358890   -0.006295331   -0.000677350
      5        8           0.004184223    0.000824395    0.013164431
      6        7          -0.001142044   -0.001420128   -0.032853896
      7        6          -0.012764430   -0.005732003    0.011716507
      8        1           0.002424253   -0.006279659    0.001285150
      9        1          -0.000631146   -0.000443798    0.010781026
 -------------------------------------------------------------------
 Cartesian Forces:  Max     0.040861028 RMS     0.014622792
 FormGI is forming the generalized inverse of G from B-inverse, IUseBI=4.

 GradGradGradGradGradGradGradGradGradGradGradGradGradGradGradGradGradGrad
 Berny optimization.
 Internal  Forces:  Max     0.030965940 RMS     0.010069386
 Search for a saddle point.
 Step number   2 out of a maximum of   37
 All quantities printed in internal units (Hartrees-Bohrs-Radians)
 Swapping is turned off.
 Second derivative matrix not updated -- analytic derivatives used.
 ITU=  0  0
     Eigenvalues ---   -0.08694  -0.02398   0.00763   0.00959   0.01266
     Eigenvalues ---    0.01847   0.02621   0.03867   0.10051   0.12510
     Eigenvalues ---    0.14103   0.17311   0.18874   0.30141   0.34312
     Eigenvalues ---    0.39357   0.44460   0.65435   0.74136   0.81730
     Eigenvalues ---    1.14780
 Eigenvectors required to have negative eigenvalues:
                          A6        R4        R7        D3        A3
   1                    0.93315   0.14389  -0.13464   0.11384  -0.11122
                          D2        A5        D7        A7        A2
   1                    0.10953  -0.09793   0.09168   0.08894   0.07260
 RFO step:  Lambda0=1.327134686D-02 Lambda=-2.93642380D-02.
 Linear search not attempted -- option 19 set.
 Maximum step size (   0.150) exceeded in Quadratic search.
    -- Step size scaled by   0.339
 Iteration  1 RMS(Cart)=  0.03192303 RMS(Int)=  0.00333960
 Iteration  2 RMS(Cart)=  0.00249193 RMS(Int)=  0.00012144
 Iteration  3 RMS(Cart)=  0.00000843 RMS(Int)=  0.00012127
 Iteration  4 RMS(Cart)=  0.00000000 RMS(Int)=  0.00012127
 Variable       Old X    -DE/DX   Delta X   Delta X   Delta X     New X
                                 (Linear)    (Quad)   (Total)
    R1        2.43371   0.00151   0.00000  -0.01297  -0.01297   2.42075
    R2        1.92440  -0.00493   0.00000  -0.00435  -0.00435   1.92005
    R3        2.55288   0.02748   0.00000   0.04841   0.04841   2.60129
    R4        2.78863  -0.00582   0.00000   0.00866   0.00866   2.79729
    R5        2.13911  -0.01653   0.00000  -0.00131  -0.00131   2.13780
    R6        2.25556   0.00153   0.00000  -0.00209  -0.00209   2.25347
    R7        2.33916   0.01243   0.00000  -0.01279  -0.01279   2.32638
    R8        2.05121   0.01058   0.00000   0.01507   0.01507   2.06628
    A1        2.02338  -0.00531   0.00000  -0.00241  -0.00241   2.02097
    A2        2.13845   0.00059   0.00000   0.00516   0.00510   2.14355
    A3        2.14004   0.01117   0.00000   0.02725   0.02716   2.16720
    A4        1.97906  -0.01114   0.00000  -0.03711  -0.03715   1.94191
    A5        2.77121   0.00686   0.00000  -0.07219  -0.07219   2.69903
    A6        2.81569  -0.03097   0.00000   0.10501   0.10501   2.92070
    A7        2.12350  -0.00388   0.00000   0.01906   0.01885   2.14234
    A8        1.99856   0.00205   0.00000  -0.02382  -0.02404   1.97452
    A9        2.16008   0.00188   0.00000   0.00639   0.00618   2.16626
    D1        0.00997  -0.00261   0.00000  -0.01484  -0.01500  -0.00504
    D2       -2.87419  -0.00411   0.00000   0.01357   0.01373  -2.86046
    D3        0.68938   0.00162   0.00000   0.08036   0.08015   0.76953
    D4       -2.68805   0.00587   0.00000   0.06248   0.06268  -2.62537
    D5       -0.43962   0.00097   0.00000   0.01343   0.01332  -0.42630
    D6        2.74944  -0.00021   0.00000  -0.02337  -0.02327   2.72617
    D7        2.93806  -0.00166   0.00000   0.03473   0.03463   2.97269
    D8       -0.15607  -0.00284   0.00000  -0.00206  -0.00196  -0.15803
    D9        2.75829  -0.00035   0.00000  -0.02343  -0.02362   2.73468
   D10       -0.43525   0.00092   0.00000   0.01607   0.01626  -0.41900
         Item               Value     Threshold  Converged?
 Maximum Force            0.030966     0.000450     NO 
 RMS     Force            0.010069     0.000300     NO 
 Maximum Displacement     0.077387     0.001800     NO 
 RMS     Displacement     0.032179     0.001200     NO 
 Predicted change in Energy= 7.198986D-04
 GradGradGradGradGradGradGradGradGradGradGradGradGradGradGradGradGradGrad

                          Input orientation:                          
 ---------------------------------------------------------------------
 Center     Atomic      Atomic             Coordinates (Angstroms)
 Number     Number       Type             X           Y           Z
 ---------------------------------------------------------------------
      1          7           0       -0.480093   -0.173643   -1.312135
      2          6           0       -0.435833   -0.894304   -0.253994
      3          7           0       -1.535750   -1.117789    0.542945
      4          7           0       -2.623049   -1.360026    0.740124
      5          8           0        3.053514   -1.354425   -0.449983
      6          7           0        1.903021   -1.335033   -0.136922
      7          6           0        0.814955   -1.281565    0.436467
      8          1           0       -1.386577    0.226500   -1.536920
      9          1           0        0.665886   -1.521679    1.492740
 ---------------------------------------------------------------------
                    Distance matrix (angstroms):
                    1          2          3          4          5
     1  N    0.000000
     2  C    1.281005   0.000000
     3  N    2.333913   1.376545   0.000000
     4  N    3.195550   2.447260   1.131272   0.000000
     5  O    3.824125   3.525006   4.701409   5.799979   0.000000
     6  N    2.899860   2.382895   3.512060   4.610331   1.192483
     7  C    2.441772   1.480263   2.358808   3.452280   2.408785
     8  H    1.016049   1.950900   2.480969   3.038233   4.836854
     9  H    3.316293   2.158349   2.431551   3.377819   3.082679
                    6          7          8          9
     6  N    0.000000
     7  C    1.231065   0.000000
     8  H    3.901261   3.318924   0.000000
     9  H    2.054541   1.093431   4.055561   0.000000
 Stoichiometry    C2H2N4O
 Framework group  C1[X(C2H2N4O)]
 Deg. of freedom    21
 Full point group                 C1      NOp   1
 Largest Abelian subgroup         C1      NOp   1
 Largest concise Abelian subgroup C1      NOp   1
                         Standard orientation:                         
 ---------------------------------------------------------------------
 Center     Atomic      Atomic             Coordinates (Angstroms)
 Number     Number       Type             X           Y           Z
 ---------------------------------------------------------------------
      1          7           0       -0.492731    1.567579    0.039304
      2          6           0       -0.551385    0.289271   -0.019547
      3          7           0       -1.734710   -0.408185    0.070853
      4          7           0       -2.823057   -0.609616   -0.163033
      5          8           0        2.952817   -0.086145   -0.092316
      6          7           0        1.771267   -0.242156   -0.052118
      7          6           0        0.614171   -0.605599    0.158969
      8          1           0       -1.381697    2.046145    0.153628
      9          1           0        0.337062   -1.612372    0.483330
 ---------------------------------------------------------------------
 Rotational constants (GHZ):           8.9776613           1.4358542           1.2451782
 Standard basis: def2TZVP (5D, 7F)
 There are   264 symmetry adapted cartesian basis functions of A   symmetry.
 There are   229 symmetry adapted basis functions of A   symmetry.
   229 basis functions,   373 primitive gaussians,   264 cartesian basis functions
    25 alpha electrons       25 beta electrons
       nuclear repulsion energy       255.8331036146 Hartrees.
 NAtoms=    9 NActive=    9 NUniq=    9 SFac= 1.00D+00 NAtFMM=   60 NAOKFM=F Big=F
 Integral buffers will be    131072 words long.
 Raffenetti 2 integral format.
 Two-electron integral symmetry is turned on.
 Nuclear repulsion after empirical dispersion term =      255.8305595920 Hartrees.
 One-electron integrals computed using PRISM.
   1 Symmetry operations used in ECPInt.
 ECPInt:  NShTT=    3655 NPrTT=   11788 LenC2=    3520 LenP2D=    9049.
 LDataN:  DoStor=T MaxTD1= 6 Len=  172
 NBasis=   229 RedAO= T EigKep=  1.77D-04  NBF=   229
 NBsUse=   229 1.00D-06 EigRej= -1.00D+00 NBFU=   229
 Initial guess from the checkpoint file:  "/scratch/23935644/Gau-15598.chk"
 B after Tr=    -0.000000   -0.000000   -0.000000
         Rot=    1.000000   -0.000632    0.000203   -0.000262 Ang=  -0.08 deg.
 Initial guess <Sx>= 0.0000 <Sy>= 0.0000 <Sz>= 0.0000 <S**2>= 0.0000 S= 0.0000
 ExpMin= 9.52D-02 ExpMax= 2.70D+04 ExpMxC= 9.22D+02 IAcc=2 IRadAn=         4 AccDes= 0.00D+00
 Harris functional with IExCor= 4639 and IRadAn=       4 diagonalized for initial guess.
 HarFok:  IExCor= 4639 AccDes= 0.00D+00 IRadAn=         4 IDoV= 1 UseB2=F ITyADJ=14
 ICtDFT=  3500011 ScaDFX=  1.000000  1.000000  1.000000  1.000000
 FoFCou: FMM=F IPFlag=           0 FMFlag=      100000 FMFlg1=           0
         NFxFlg=           0 DoJE=T BraDBF=F KetDBF=T FulRan=T
         wScrn=  0.000000 ICntrl=       500 IOpCl=  0 I1Cent=   200000004 NGrid=           0
         NMat0=    1 NMatS0=      1 NMatT0=    0 NMatD0=    1 NMtDS0=    0 NMtDT0=    0
 Petite list used in FoFCou.
 Requested convergence on RMS density matrix=1.00D-08 within 128 cycles.
 Requested convergence on MAX density matrix=1.00D-06.
 Requested convergence on             energy=1.00D-06.
 No special actions if energy rises.
 Integral accuracy reduced to 1.0D-05 until final iterations.
 Initial convergence to 1.0D-05 achieved.  Increase integral accuracy.
 SCF Done:  E(UwB97XD) =  -371.391942120     A.U. after   23 cycles
            NFock= 23  Conv=0.95D-08     -V/T= 2.0037
 <Sx>= 0.0000 <Sy>= 0.0000 <Sz>= 0.0000 <S**2>= 0.0000 S= 0.0000
 <L.S>=  0.00000000000    
 Annihilation of the first spin contaminant:
 S**2 before annihilation     0.0000,   after    -0.0000
 DoSCS=F DFT=T ScalE2(SS,OS)=  1.000000  1.000000
 Range of M.O.s used for correlation:     1   229
 NBasis=   229 NAE=    25 NBE=    25 NFC=     0 NFV=     0
 NROrb=    229 NOA=    25 NOB=    25 NVA=   204 NVB=   204

 **** Warning!!: The largest alpha MO coefficient is  0.16455964D+02


 **** Warning!!: The largest beta MO coefficient is  0.16455963D+02

   1 Symmetry operations used in ECPInt.
 ECPInt:  NShTT=    3655 NPrTT=   11788 LenC2=    3520 LenP2D=    9049.
 LDataN:  DoStor=T MaxTD1= 7 Len=  274
 Symmetrizing basis deriv contribution to polar:
 IMax=3 JMax=2 DiffMx= 0.00D+00
 G2DrvN: will do    10 centers at a time, making    1 passes.
 Calling FoFCou, ICntrl=  3107 FMM=F I1Cent=   0 AccDes= 0.00D+00.
 End of G2Drv F.D. properties file   721 does not exist.
 End of G2Drv F.D. properties file   722 does not exist.
 End of G2Drv F.D. properties file   788 does not exist.
          IDoAtm=111111111
          Differentiating once with respect to electric field.
                with respect to dipole field.
          Differentiating once with respect to nuclear coordinates.
 CalDSu exits because no D1Ps are significant.
          There are    30 degrees of freedom in the 1st order CPHF.  IDoFFX=6 NUNeed=     3.
     27 vectors produced by pass  0 Test12= 3.40D-14 3.33D-09 XBig12= 9.37D+02 2.01D+01.
 AX will form    27 AO Fock derivatives at one time.
     27 vectors produced by pass  1 Test12= 3.40D-14 3.33D-09 XBig12= 2.24D+02 2.82D+00.
     27 vectors produced by pass  2 Test12= 3.40D-14 3.33D-09 XBig12= 6.10D+00 3.52D-01.
     27 vectors produced by pass  3 Test12= 3.40D-14 3.33D-09 XBig12= 1.78D-01 7.79D-02.
     27 vectors produced by pass  4 Test12= 3.40D-14 3.33D-09 XBig12= 2.93D-03 7.35D-03.
     27 vectors produced by pass  5 Test12= 3.40D-14 3.33D-09 XBig12= 3.17D-05 5.37D-04.
     27 vectors produced by pass  6 Test12= 3.40D-14 3.33D-09 XBig12= 4.60D-07 1.22D-04.
     24 vectors produced by pass  7 Test12= 3.40D-14 3.33D-09 XBig12= 3.74D-09 7.33D-06.
      8 vectors produced by pass  8 Test12= 3.40D-14 3.33D-09 XBig12= 3.00D-11 5.96D-07.
      3 vectors produced by pass  9 Test12= 3.40D-14 3.33D-09 XBig12= 2.82D-13 9.86D-08.
      2 vectors produced by pass 10 Test12= 3.40D-14 3.33D-09 XBig12= 1.39D-14 3.80D-08.
 InvSVY:  IOpt=1 It=  1 EMax= 1.07D-14
 Solved reduced A of dimension   226 with    30 vectors.
 Isotropic polarizability for W=    0.000000       95.22 Bohr**3.
 End of Minotr F.D. properties file   721 does not exist.
 End of Minotr F.D. properties file   722 does not exist.
 End of Minotr F.D. properties file   788 does not exist.
   1 Symmetry operations used in ECPInt.
 ECPInt:  NShTT=    3655 NPrTT=   11788 LenC2=    3520 LenP2D=    9049.
 LDataN:  DoStor=T MaxTD1= 8 Len=  415
 Calling FoFJK, ICntrl=    100127 FMM=F ISym2X=0 I1Cent= 0 IOpClX= 1 NMat=1 NMatS=1 NMatT=0.
 ***** Axes restored to original set *****
 -------------------------------------------------------------------
 Center     Atomic                   Forces (Hartrees/Bohr)
 Number     Number              X              Y              Z
 -------------------------------------------------------------------
      1        7          -0.003021189    0.007070176    0.001931865
      2        6           0.028181857   -0.000012458   -0.021367975
      3        7          -0.031855256    0.012156998    0.019495874
      4        7           0.013409394   -0.008495925   -0.002083867
      5        8           0.003936784    0.000306344    0.008609763
      6        7          -0.000539167    0.000168503   -0.022334729
      7        6          -0.010192261   -0.006233421    0.007878506
      8        1           0.001419004   -0.005069356    0.000119602
      9        1          -0.001339165    0.000109138    0.007750960
 -------------------------------------------------------------------
 Cartesian Forces:  Max     0.031855256 RMS     0.012165412
 FormGI is forming the generalized inverse of G from B-inverse, IUseBI=4.

 GradGradGradGradGradGradGradGradGradGradGradGradGradGradGradGradGradGrad
 Berny optimization.
 Internal  Forces:  Max     0.024225277 RMS     0.007731275
 Search for a saddle point.
 Step number   3 out of a maximum of   37
 All quantities printed in internal units (Hartrees-Bohrs-Radians)
 Swapping is turned off.
 Second derivative matrix not updated -- analytic derivatives used.
 ITU=  0  0  0
     Eigenvalues ---   -0.09894  -0.05394   0.00473   0.00664   0.01095
     Eigenvalues ---    0.01931   0.02551   0.03271   0.09913   0.12401
     Eigenvalues ---    0.13609   0.15788   0.19472   0.29213   0.32332
     Eigenvalues ---    0.35146   0.45120   0.66547   0.75800   0.83080
     Eigenvalues ---    1.15603
 Eigenvectors required to have negative eigenvalues:
                          A6        A5        D3        R4        D7
   1                    0.92466  -0.24301   0.12357   0.10786   0.10380
                          R7        A7        D2        A8        D9
   1                   -0.09828   0.09248   0.08540  -0.06550  -0.05635
 RFO step:  Lambda0=3.795414016D-03 Lambda=-6.15991547D-02.
 Linear search not attempted -- option 19 set.
 Maximum step size (   0.150) exceeded in Quadratic search.
    -- Step size scaled by   0.379
 Iteration  1 RMS(Cart)=  0.03077164 RMS(Int)=  0.00227389
 Iteration  2 RMS(Cart)=  0.00205166 RMS(Int)=  0.00010254
 Iteration  3 RMS(Cart)=  0.00000417 RMS(Int)=  0.00010247
 Iteration  4 RMS(Cart)=  0.00000000 RMS(Int)=  0.00010247
 Variable       Old X    -DE/DX   Delta X   Delta X   Delta X     New X
                                 (Linear)    (Quad)   (Total)
    R1        2.42075  -0.00051   0.00000  -0.02119  -0.02119   2.39956
    R2        1.92005  -0.00329   0.00000  -0.00319  -0.00319   1.91686
    R3        2.60129   0.02423   0.00000   0.07695   0.07695   2.67824
    R4        2.79729  -0.00451   0.00000  -0.00518  -0.00518   2.79211
    R5        2.13780  -0.01143   0.00000  -0.00367  -0.00367   2.13412
    R6        2.25347   0.00153   0.00000   0.00159   0.00159   2.25506
    R7        2.32638   0.00938   0.00000  -0.00266  -0.00266   2.32371
    R8        2.06628   0.00765   0.00000   0.01365   0.01365   2.07994
    A1        2.02097  -0.00335   0.00000   0.00383   0.00383   2.02480
    A2        2.14355  -0.00008   0.00000  -0.00359  -0.00358   2.13997
    A3        2.16720   0.00950   0.00000   0.03932   0.03923   2.20643
    A4        1.94191  -0.00919   0.00000  -0.04003  -0.04004   1.90187
    A5        2.69903  -0.00105   0.00000  -0.10470  -0.10470   2.59433
    A6        2.92070  -0.02098   0.00000   0.03372   0.03372   2.95442
    A7        2.14234  -0.00234   0.00000   0.00964   0.00960   2.15195
    A8        1.97452   0.00056   0.00000  -0.01915  -0.01918   1.95534
    A9        2.16626   0.00180   0.00000   0.00966   0.00963   2.17589
    D1       -0.00504  -0.00340   0.00000  -0.02874  -0.02887  -0.03390
    D2       -2.86046  -0.00304   0.00000  -0.00271  -0.00259  -2.86305
    D3        0.76953   0.00399   0.00000   0.04994   0.04962   0.81916
    D4       -2.62537   0.00626   0.00000   0.03798   0.03829  -2.58708
    D5       -0.42630   0.00054   0.00000   0.00340   0.00328  -0.42302
    D6        2.72617  -0.00082   0.00000  -0.01230  -0.01233   2.71384
    D7        2.97269  -0.00006   0.00000   0.02319   0.02322   2.99591
    D8       -0.15803  -0.00142   0.00000   0.00750   0.00762  -0.15041
    D9        2.73468  -0.00054   0.00000  -0.01014  -0.01022   2.72446
   D10       -0.41900   0.00096   0.00000   0.00711   0.00719  -0.41181
         Item               Value     Threshold  Converged?
 Maximum Force            0.024225     0.000450     NO 
 RMS     Force            0.007731     0.000300     NO 
 Maximum Displacement     0.083817     0.001800     NO 
 RMS     Displacement     0.031037     0.001200     NO 
 Predicted change in Energy=-3.377542D-03
 GradGradGradGradGradGradGradGradGradGradGradGradGradGradGradGradGradGrad

                          Input orientation:                          
 ---------------------------------------------------------------------
 Center     Atomic      Atomic             Coordinates (Angstroms)
 Number     Number       Type             X           Y           Z
 ---------------------------------------------------------------------
      1          7           0       -0.496542   -0.166459   -1.316720
      2          6           0       -0.418596   -0.883110   -0.271392
      3          7           0       -1.524219   -1.104204    0.587299
      4          7           0       -2.614901   -1.372114    0.705715
      5          8           0        3.064344   -1.370288   -0.452494
      6          7           0        1.917709   -1.341038   -0.123259
      7          6           0        0.820126   -1.282409    0.428035
      8          1           0       -1.411228    0.219947   -1.523995
      9          1           0        0.639382   -1.512289    1.489134
 ---------------------------------------------------------------------
                    Distance matrix (angstroms):
                    1          2          3          4          5
     1  N    0.000000
     2  C    1.269793   0.000000
     3  N    2.358130   1.417263   0.000000
     4  N    3.167222   2.453083   1.129329   0.000000
     5  O    3.856942   3.521508   4.712418   5.796143   0.000000
     6  N    2.938127   2.385365   3.522478   4.607897   1.193324
     7  C    2.454207   1.477522   2.356496   3.447399   2.412378
     8  H    1.014359   1.941923   2.494736   2.992506   4.869056
     9  H    3.312763   2.148170   2.379287   3.350186   3.109747
                    6          7          8          9
     6  N    0.000000
     7  C    1.229655   0.000000
     8  H    3.934534   3.323618   0.000000
     9  H    2.064766   1.100656   4.035417   0.000000
 Stoichiometry    C2H2N4O
 Framework group  C1[X(C2H2N4O)]
 Deg. of freedom    21
 Full point group                 C1      NOp   1
 Largest Abelian subgroup         C1      NOp   1
 Largest concise Abelian subgroup C1      NOp   1
                         Standard orientation:                         
 ---------------------------------------------------------------------
 Center     Atomic      Atomic             Coordinates (Angstroms)
 Number     Number       Type             X           Y           Z
 ---------------------------------------------------------------------
      1          7           0       -0.522951    1.574404    0.039930
      2          6           0       -0.540157    0.306028   -0.017519
      3          7           0       -1.733945   -0.447985    0.104826
      4          7           0       -2.812283   -0.601791   -0.193359
      5          8           0        2.959381   -0.077696   -0.101234
      6          7           0        1.779673   -0.248568   -0.045423
      7          6           0        0.617360   -0.595698    0.156025
      8          1           0       -1.424120    2.027039    0.149198
      9          1           0        0.312393   -1.599868    0.487811
 ---------------------------------------------------------------------
 Rotational constants (GHZ):           8.8565927           1.4324812           1.2417866
 Standard basis: def2TZVP (5D, 7F)
 There are   264 symmetry adapted cartesian basis functions of A   symmetry.
 There are   229 symmetry adapted basis functions of A   symmetry.
   229 basis functions,   373 primitive gaussians,   264 cartesian basis functions
    25 alpha electrons       25 beta electrons
       nuclear repulsion energy       255.2874707880 Hartrees.
 NAtoms=    9 NActive=    9 NUniq=    9 SFac= 1.00D+00 NAtFMM=   60 NAOKFM=F Big=F
 Integral buffers will be    131072 words long.
 Raffenetti 2 integral format.
 Two-electron integral symmetry is turned on.
 Nuclear repulsion after empirical dispersion term =      255.2849240551 Hartrees.
 One-electron integrals computed using PRISM.
   1 Symmetry operations used in ECPInt.
 ECPInt:  NShTT=    3655 NPrTT=   11788 LenC2=    3519 LenP2D=    9047.
 LDataN:  DoStor=T MaxTD1= 6 Len=  172
 NBasis=   229 RedAO= T EigKep=  1.77D-04  NBF=   229
 NBsUse=   229 1.00D-06 EigRej= -1.00D+00 NBFU=   229
 Initial guess from the checkpoint file:  "/scratch/23935644/Gau-15598.chk"
 B after Tr=     0.000000    0.000000    0.000000
         Rot=    0.999997   -0.000818    0.000259   -0.002107 Ang=  -0.26 deg.
 Initial guess <Sx>= 0.0000 <Sy>= 0.0000 <Sz>= 0.0000 <S**2>= 0.0000 S= 0.0000
 ExpMin= 9.52D-02 ExpMax= 2.70D+04 ExpMxC= 9.22D+02 IAcc=2 IRadAn=         4 AccDes= 0.00D+00
 Harris functional with IExCor= 4639 and IRadAn=       4 diagonalized for initial guess.
 HarFok:  IExCor= 4639 AccDes= 0.00D+00 IRadAn=         4 IDoV= 1 UseB2=F ITyADJ=14
 ICtDFT=  3500011 ScaDFX=  1.000000  1.000000  1.000000  1.000000
 FoFCou: FMM=F IPFlag=           0 FMFlag=      100000 FMFlg1=           0
         NFxFlg=           0 DoJE=T BraDBF=F KetDBF=T FulRan=T
         wScrn=  0.000000 ICntrl=       500 IOpCl=  0 I1Cent=   200000004 NGrid=           0
         NMat0=    1 NMatS0=      1 NMatT0=    0 NMatD0=    1 NMtDS0=    0 NMtDT0=    0
 Petite list used in FoFCou.
 Requested convergence on RMS density matrix=1.00D-08 within 128 cycles.
 Requested convergence on MAX density matrix=1.00D-06.
 Requested convergence on             energy=1.00D-06.
 No special actions if energy rises.
 Integral accuracy reduced to 1.0D-05 until final iterations.
 Initial convergence to 1.0D-05 achieved.  Increase integral accuracy.
 SCF Done:  E(UwB97XD) =  -371.395424005     A.U. after   27 cycles
            NFock= 27  Conv=0.78D-08     -V/T= 2.0036
 <Sx>= 0.0000 <Sy>= 0.0000 <Sz>= 0.0000 <S**2>= 0.0000 S= 0.0000
 <L.S>=  0.00000000000    
 Annihilation of the first spin contaminant:
 S**2 before annihilation     0.0000,   after     0.0000
 DoSCS=F DFT=T ScalE2(SS,OS)=  1.000000  1.000000
 Range of M.O.s used for correlation:     1   229
 NBasis=   229 NAE=    25 NBE=    25 NFC=     0 NFV=     0
 NROrb=    229 NOA=    25 NOB=    25 NVA=   204 NVB=   204

 **** Warning!!: The largest alpha MO coefficient is  0.16834211D+02


 **** Warning!!: The largest beta MO coefficient is  0.16834211D+02

   1 Symmetry operations used in ECPInt.
 ECPInt:  NShTT=    3655 NPrTT=   11788 LenC2=    3519 LenP2D=    9047.
 LDataN:  DoStor=T MaxTD1= 7 Len=  274
 Symmetrizing basis deriv contribution to polar:
 IMax=3 JMax=2 DiffMx= 0.00D+00
 G2DrvN: will do    10 centers at a time, making    1 passes.
 Calling FoFCou, ICntrl=  3107 FMM=F I1Cent=   0 AccDes= 0.00D+00.
 End of G2Drv F.D. properties file   721 does not exist.
 End of G2Drv F.D. properties file   722 does not exist.
 End of G2Drv F.D. properties file   788 does not exist.
          IDoAtm=111111111
          Differentiating once with respect to electric field.
                with respect to dipole field.
          Differentiating once with respect to nuclear coordinates.
 CalDSu exits because no D1Ps are significant.
          There are    30 degrees of freedom in the 1st order CPHF.  IDoFFX=6 NUNeed=     3.
     27 vectors produced by pass  0 Test12= 3.40D-14 3.33D-09 XBig12= 9.44D+02 2.03D+01.
 AX will form    27 AO Fock derivatives at one time.
     27 vectors produced by pass  1 Test12= 3.40D-14 3.33D-09 XBig12= 2.25D+02 2.46D+00.
     27 vectors produced by pass  2 Test12= 3.40D-14 3.33D-09 XBig12= 6.06D+00 2.99D-01.
     27 vectors produced by pass  3 Test12= 3.40D-14 3.33D-09 XBig12= 1.57D-01 5.92D-02.
     27 vectors produced by pass  4 Test12= 3.40D-14 3.33D-09 XBig12= 2.29D-03 5.09D-03.
     27 vectors produced by pass  5 Test12= 3.40D-14 3.33D-09 XBig12= 2.14D-05 4.42D-04.
     27 vectors produced by pass  6 Test12= 3.40D-14 3.33D-09 XBig12= 2.26D-07 1.35D-04.
     22 vectors produced by pass  7 Test12= 3.40D-14 3.33D-09 XBig12= 2.56D-09 7.04D-06.
      8 vectors produced by pass  8 Test12= 3.40D-14 3.33D-09 XBig12= 2.11D-11 6.30D-07.
      3 vectors produced by pass  9 Test12= 3.40D-14 3.33D-09 XBig12= 1.67D-13 5.54D-08.
      2 vectors produced by pass 10 Test12= 3.40D-14 3.33D-09 XBig12= 5.39D-15 1.73D-08.
 InvSVY:  IOpt=1 It=  1 EMax= 1.07D-14
 Solved reduced A of dimension   224 with    30 vectors.
 Isotropic polarizability for W=    0.000000       94.96 Bohr**3.
 End of Minotr F.D. properties file   721 does not exist.
 End of Minotr F.D. properties file   722 does not exist.
 End of Minotr F.D. properties file   788 does not exist.
   1 Symmetry operations used in ECPInt.
 ECPInt:  NShTT=    3655 NPrTT=   11788 LenC2=    3519 LenP2D=    9047.
 LDataN:  DoStor=T MaxTD1= 8 Len=  415
 Calling FoFJK, ICntrl=    100127 FMM=F ISym2X=0 I1Cent= 0 IOpClX= 1 NMat=1 NMatS=1 NMatT=0.
 ***** Axes restored to original set *****
 -------------------------------------------------------------------
 Center     Atomic                   Forces (Hartrees/Bohr)
 Number     Number              X              Y              Z
 -------------------------------------------------------------------
      1        7          -0.002057391    0.007494315    0.006446979
      2        6           0.024979523   -0.001958520   -0.030236291
      3        7          -0.025218681    0.013230358    0.028239993
      4        7           0.008615173   -0.008527939   -0.005244549
      5        8           0.002808821   -0.000323972    0.006678349
      6        7          -0.001979226    0.001831930   -0.016687203
      7        6          -0.005034640   -0.006807590    0.006327922
      8        1           0.000468106   -0.005154239   -0.001379555
      9        1          -0.002581684    0.000215656    0.005854355
 -------------------------------------------------------------------
 Cartesian Forces:  Max     0.030236291 RMS     0.012090275
 FormGI is forming the generalized inverse of G from B-inverse, IUseBI=4.

[...]
              Bcc     0.0000    -0.000    -0.000    -0.000 -0.0329 -0.0062  0.9994
 
              Baa    -0.0000    -0.000    -0.000    -0.000 -0.3432  0.9393 -0.0007
     6 N(14)  Bbb     0.0000     0.000     0.000     0.000  0.9391  0.3431 -0.0213
              Bcc     0.0000     0.000     0.000     0.000  0.0198  0.0079  0.9998
 
              Baa    -0.0000    -0.000    -0.000    -0.000  0.8962 -0.4436 -0.0021
     7 C(13)  Bbb    -0.0000    -0.000    -0.000    -0.000  0.4436  0.8962 -0.0018
              Bcc     0.0000     0.000     0.000     0.000  0.0027  0.0006  1.0000
 
              Baa    -0.0000    -0.000    -0.000    -0.000  0.0065  0.0004  1.0000
     8 H(1)   Bbb    -0.0000    -0.000    -0.000    -0.000  0.3011  0.9536 -0.0023
              Bcc     0.0000     0.000     0.000     0.000  0.9536 -0.3011 -0.0061
 
              Baa    -0.0000    -0.000    -0.000    -0.000  0.9835  0.1807 -0.0085
     9 H(1)   Bbb     0.0000     0.000     0.000     0.000  0.0144 -0.0319  0.9994
              Bcc     0.0000     0.000     0.000     0.000 -0.1803  0.9830  0.0340
 

 ---------------------------------------------------------------------------------

 Rotating derivatives to standard orientation.
 Full mass-weighted force constant matrix:
 Low frequencies --- -674.7934  -10.2688   -0.0005    0.0008    0.0010    2.7327
 Low frequencies ---    8.5023   16.4201   18.0900
 ******    1 imaginary frequencies (negative Signs) ****** 
 Diagonal vibrational polarizability:
       20.8316377     160.1974953     718.1156543
 Harmonic frequencies (cm**-1), IR intensities (KM/Mole), Raman scattering
 activities (A**4/AMU), depolarization ratios for plane and unpolarized
 incident light, reduced masses (AMU), force constants (mDyne/A),
 and normal coordinates:
                      1                      2                      3
                      A                      A                      A
 Frequencies --   -674.7934                16.1908                18.0453
 Red. masses --      9.3020                 7.7911                 9.9351
 Frc consts  --      2.4956                 0.0012                 0.0019
 IR Inten    --     43.1093                 6.6366                 1.3271
  Atom  AN      X      Y      Z        X      Y      Z        X      Y      Z
     1   7    -0.12   0.02   0.00     0.00   0.00  -0.05    -0.32  -0.16  -0.00
     2   6     0.45  -0.12  -0.00     0.00   0.00  -0.27    -0.17  -0.19  -0.00
     3   7     0.00   0.00  -0.00    -0.00   0.00  -0.17     0.08  -0.16  -0.00
     4   7    -0.00  -0.00  -0.00    -0.00  -0.00   0.40     0.47   0.44   0.00
     5   8     0.01  -0.24   0.00     0.00  -0.00   0.37    -0.05   0.17   0.00
     6   7    -0.16   0.56  -0.00     0.00   0.00   0.01    -0.02   0.01   0.00
     7   6    -0.10  -0.19   0.00    -0.00   0.00  -0.37     0.01  -0.15  -0.00
     8   1    -0.40  -0.32  -0.00     0.00   0.00  -0.20    -0.41  -0.26  -0.00
     9   1    -0.01  -0.26   0.00    -0.00   0.00  -0.65     0.12  -0.23  -0.00
                      4                      5                      6
                      A                      A                      A
 Frequencies --     48.2750                64.7271                74.8953
 Red. masses --      9.4949                 8.8395                12.6053
 Frc consts  --      0.0130                 0.0218                 0.0417
 IR Inten    --      2.4681                 1.6381                 0.5534
  Atom  AN      X      Y      Z        X      Y      Z        X      Y      Z
     1   7     0.00   0.00   0.09    -0.21  -0.21  -0.00    -0.09   0.06   0.00
     2   6     0.00   0.00  -0.16    -0.01  -0.25   0.00    -0.17   0.08  -0.00
     3   7    -0.00  -0.00   0.59     0.08   0.49   0.00     0.65   0.31  -0.00
     4   7     0.00  -0.00  -0.36    -0.27  -0.06  -0.00     0.26  -0.30   0.00
     5   8    -0.00  -0.00   0.18     0.11   0.20  -0.00    -0.20  -0.15   0.00
     6   7    -0.00   0.00  -0.08     0.14  -0.02   0.00    -0.22  -0.04  -0.00
     7   6    -0.00  -0.00  -0.34     0.17  -0.20   0.00    -0.23   0.06  -0.00
     8   1     0.00   0.00   0.05    -0.32  -0.34  -0.00    -0.05   0.12  -0.00
     9   1    -0.00  -0.00  -0.57     0.29  -0.28   0.00    -0.28   0.09  -0.00
                      7                      8                      9
                      A                      A                      A
 Frequencies --    129.0357               378.7410               432.5681
 Red. masses --     10.6708                 6.3499                 5.1955
 Frc consts  --      0.1047                 0.5367                 0.5728
 IR Inten    --     21.8107                 4.9022                 8.5477
  Atom  AN      X      Y      Z        X      Y      Z        X      Y      Z
     1   7     0.42  -0.16  -0.00    -0.25   0.14  -0.00     0.00  -0.00  -0.29
     2   6     0.28  -0.17   0.00     0.45   0.03   0.00    -0.00  -0.00   0.48
     3   7     0.03  -0.00  -0.00    -0.00  -0.01  -0.00     0.00   0.00   0.00
     4   7     0.02  -0.02   0.00     0.01  -0.00   0.00    -0.00  -0.00  -0.00
     5   8    -0.28   0.46  -0.00     0.01   0.06   0.00    -0.00  -0.00   0.10
     6   7    -0.21  -0.03   0.00     0.05  -0.34  -0.00    -0.00   0.00  -0.14
     7   6    -0.23  -0.17   0.00    -0.15   0.14  -0.00     0.00  -0.00  -0.11
     8   1     0.42  -0.16   0.00    -0.60  -0.31   0.00     0.00   0.00   0.55
     9   1    -0.17  -0.20  -0.00    -0.24   0.18  -0.00     0.00  -0.00  -0.58
                     10                     11                     12
                      A                      A                      A
 Frequencies --    492.6579               628.2726               727.0919
 Red. masses --      2.9586                 1.2405                 1.6915
 Frc consts  --      0.4231                 0.2885                 0.5269
 IR Inten    --      8.4747                73.5274                22.1918
  Atom  AN      X      Y      Z        X      Y      Z        X      Y      Z
     1   7     0.00  -0.00  -0.02    -0.00  -0.00  -0.05    -0.00   0.00  -0.01
     2   6    -0.00  -0.00   0.07    -0.00  -0.00  -0.09     0.00   0.00   0.08
     3   7    -0.00  -0.00   0.00    -0.00  -0.00   0.00    -0.00  -0.00  -0.00
     4   7    -0.00   0.00  -0.00    -0.00   0.00  -0.00     0.00   0.00   0.00
     5   8     0.00  -0.00  -0.16     0.00  -0.00  -0.03     0.00   0.00  -0.02
     6   7     0.00   0.00   0.32     0.00   0.00   0.09     0.00  -0.00   0.08
     7   6    -0.00  -0.00  -0.11     0.00  -0.00  -0.01    -0.00  -0.00  -0.22
     8   1    -0.00  -0.00  -0.38     0.00   0.00   0.99     0.00   0.00  -0.08
     9   1    -0.00  -0.00  -0.84     0.00  -0.00   0.04     0.00   0.00   0.97
                     13                     14                     15
                      A                      A                      A
 Frequencies --    909.5490              1016.4574              1158.5086
 Red. masses --      1.6095                 2.4709                 4.2311
 Frc consts  --      0.7845                 1.5041                 3.3458
 IR Inten    --    305.6671                12.4630               140.8936
  Atom  AN      X      Y      Z        X      Y      Z        X      Y      Z
     1   7    -0.09  -0.12   0.00     0.07  -0.18   0.00     0.05   0.11  -0.00
     2   6     0.05  -0.04  -0.00    -0.04  -0.08   0.00    -0.11   0.04   0.00
     3   7     0.00  -0.00   0.00     0.00  -0.00  -0.00     0.00  -0.00  -0.00
     4   7     0.00  -0.00   0.00     0.00   0.00   0.00     0.00  -0.00   0.00
     5   8     0.07   0.01  -0.00     0.06  -0.02  -0.00     0.31   0.06  -0.00
     6   7     0.01   0.02  -0.00     0.01   0.06  -0.00    -0.02  -0.01  -0.00
     7   6    -0.09   0.08   0.00    -0.08   0.26  -0.00    -0.26  -0.24   0.00
     8   1     0.63   0.72  -0.00    -0.37  -0.71   0.00    -0.16  -0.14   0.00
     9   1    -0.16   0.12  -0.00    -0.27   0.41   0.00    -0.83   0.13   0.00
                     16                     17                     18
                      A                      A                      A
 Frequencies --   1302.3477              1888.1938              2051.3878
 Red. masses --      1.4078                10.4171                 9.5546
 Frc consts  --      1.4068                21.8821                23.6896
 IR Inten    --      3.2528               706.1912               116.0545
  Atom  AN      X      Y      Z        X      Y      Z        X      Y      Z
     1   7     0.02   0.01  -0.00    -0.07  -0.35   0.00    -0.03  -0.27   0.00
     2   6    -0.02  -0.01   0.00     0.11   0.56  -0.00     0.02   0.48  -0.00
     3   7    -0.00   0.00   0.00     0.00  -0.00  -0.00     0.00  -0.00   0.00
     4   7    -0.00   0.00  -0.00    -0.00   0.00  -0.00    -0.00   0.00   0.00
     5   8     0.08  -0.00  -0.00     0.20   0.04   0.00    -0.21  -0.03  -0.00
     6   7    -0.01  -0.01  -0.00    -0.47  -0.09   0.00     0.50   0.09  -0.00
     7   6    -0.15   0.06   0.00     0.23  -0.06  -0.00    -0.26  -0.17   0.00
     8   1    -0.03  -0.05  -0.00     0.00  -0.38   0.00    -0.01  -0.32   0.00
     9   1     0.79  -0.58  -0.00     0.28  -0.06  -0.00    -0.18  -0.41   0.00
                     19                     20                     21
                      A                      A                      A
 Frequencies --   2496.6909              3063.6817              3538.5502
 Red. masses --     14.0019                 1.1023                 1.0781
 Frc consts  --     51.4239                 6.0961                 7.9532
 IR Inten    --      0.2182                56.9070                34.0137
  Atom  AN      X      Y      Z        X      Y      Z        X      Y      Z
     1   7     0.00   0.00  -0.00    -0.00  -0.00   0.00    -0.05   0.05   0.00
     2   6     0.00  -0.00   0.00     0.00   0.01  -0.00    -0.00  -0.01   0.00
     3   7     0.59  -0.39   0.00     0.00   0.00  -0.00     0.00  -0.00  -0.00
     4   7    -0.59   0.39  -0.00    -0.00  -0.00   0.00     0.00   0.00  -0.00
     5   8     0.00   0.00  -0.00    -0.00  -0.00  -0.00     0.00  -0.00   0.00
     6   7    -0.00   0.00  -0.00     0.01   0.00  -0.00     0.00  -0.00  -0.00
     7   6    -0.00  -0.00  -0.00    -0.05  -0.07   0.00    -0.00  -0.00   0.00
     8   1     0.00   0.00   0.00     0.00   0.00  -0.00     0.77  -0.64  -0.00
     9   1    -0.01   0.01  -0.00     0.56   0.82  -0.00     0.00  -0.00  -0.00

 -------------------
 - Thermochemistry -
 -------------------
 Temperature   298.150 Kelvin.  Pressure   1.00000 Atm.
 Atom     1 has atomic number  7 and mass  14.00307
 Atom     2 has atomic number  6 and mass  12.00000
 Atom     3 has atomic number  7 and mass  14.00307
 Atom     4 has atomic number  7 and mass  14.00307
 Atom     5 has atomic number  8 and mass  15.99491
 Atom     6 has atomic number  7 and mass  14.00307
 Atom     7 has atomic number  6 and mass  12.00000
 Atom     8 has atomic number  1 and mass   1.00783
 Atom     9 has atomic number  1 and mass   1.00783
 Molecular mass:    98.02286 amu.
 Principal axes and moments of inertia in atomic units:
                           1         2         3
     Eigenvalues --   275.971871771.054102047.02597
           X            1.00000  -0.00148  -0.00000
           Y            0.00148   1.00000  -0.00000
           Z            0.00000   0.00000   1.00000
 This molecule is an asymmetric top.
 Rotational symmetry number  1.
 Rotational temperatures (Kelvin)      0.31385     0.04891     0.04231
 Rotational constants (GHZ):           6.53958     1.01902     0.88164
    1 imaginary frequencies ignored.
 Zero-point vibrational energy     122233.6 (Joules/Mol)
                                   29.21454 (Kcal/Mol)
 Warning -- explicit consideration of   9 degrees of freedom as
           vibrations may cause significant error
 Vibrational temperatures:     23.30    25.96    69.46    93.13   107.76
          (Kelvin)            185.65   544.92   622.37   708.82   903.94
                             1046.12  1308.64  1462.46  1666.84  1873.79
                             2716.69  2951.49  3592.18  4407.95  5091.18
 
 Zero-point correction=                           0.046556 (Hartree/Particle)
 Thermal correction to Energy=                    0.055513
 Thermal correction to Enthalpy=                  0.056457
 Thermal correction to Gibbs Free Energy=         0.008150
 Sum of electronic and zero-point Energies=           -371.425694
 Sum of electronic and thermal Energies=              -371.416737
 Sum of electronic and thermal Enthalpies=            -371.415793
 Sum of electronic and thermal Free Energies=         -371.464100
 
                     E (Thermal)             CV                S
                      KCal/Mol        Cal/Mol-Kelvin    Cal/Mol-Kelvin
 Total                   34.835             24.962            101.672
 Electronic               0.000              0.000              0.000
 Translational            0.889              2.981             39.658
 Rotational               0.889              2.981             28.394
 Vibrational             33.058             19.000             33.619
 Vibration     1          0.593              1.986              7.054
 Vibration     2          0.593              1.986              6.838
 Vibration     3          0.595              1.978              4.887
 Vibration     4          0.597              1.971              4.308
 Vibration     5          0.599              1.966              4.020
 Vibration     6          0.612              1.924              2.960
 Vibration     7          0.749              1.515              1.044
 Vibration     8          0.793              1.399              0.850
 Vibration     9          0.848              1.266              0.677
                       Q            Log10(Q)             Ln(Q)
 Total Bot       0.178408D-03         -3.748587         -8.631439
 Total V=0       0.463256D+18         17.665821         40.677056
 Vib (Bot)       0.130621D-16        -16.883987        -38.876817
 Vib (Bot)    1  0.127956D+02          1.107061          2.549103
 Vib (Bot)    2  0.114799D+02          1.059940          2.440601
 Vib (Bot)    3  0.428289D+01          0.631737          1.454628
 Vib (Bot)    4  0.318853D+01          0.503591          1.159561
 Vib (Bot)    5  0.275186D+01          0.439626          1.012276
 Vib (Bot)    6  0.158029D+01          0.198738          0.457610
 Vib (Bot)    7  0.477805D+00         -0.320749         -0.738553
 Vib (Bot)    8  0.401992D+00         -0.395783         -0.911323
 Vib (Bot)    9  0.335772D+00         -0.473956         -1.091323
 Vib (V=0)       0.339172D+05          4.530421         10.431679
 Vib (V=0)    1  0.133054D+02          1.124027          2.588169
 Vib (V=0)    2  0.119908D+02          1.078849          2.484142
 Vib (V=0)    3  0.481198D+01          0.682324          1.571108
 Vib (V=0)    4  0.372750D+01          0.571417          1.315737
 Vib (V=0)    5  0.329691D+01          0.518107          1.192986
 Vib (V=0)    6  0.215751D+01          0.333952          0.768953
 Vib (V=0)    7  0.119159D+01          0.076127          0.175289
 Vib (V=0)    8  0.114156D+01          0.057498          0.132395
 Vib (V=0)    9  0.110228D+01          0.042292          0.097382
 Electronic      0.100000D+01          0.000000          0.000000
 Translational   0.381456D+08          7.581445         17.456922
 Rotational      0.358060D+06          5.553956         12.788455
 ***** Axes restored to original set *****
 -------------------------------------------------------------------
 Center     Atomic                   Forces (Hartrees/Bohr)
 Number     Number              X              Y              Z
 -------------------------------------------------------------------
      1        7          -0.000002689    0.000002170   -0.000003549
      2        6           0.000117239    0.000053126   -0.000128467
      3        7          -0.000027970   -0.000045026    0.000092356
      4        7           0.000000647    0.000007748   -0.000014934
      5        8          -0.000033749    0.000008537   -0.000010244
      6        7          -0.000001709   -0.000004252    0.000012157
      7        6           0.000018651   -0.000021019    0.000033762
      8        1          -0.000011778   -0.000000621    0.000003939
      9        1          -0.000058643   -0.000000662    0.000014978
 -------------------------------------------------------------------
 Cartesian Forces:  Max     0.000128467 RMS     0.000043865

 ----------------------------------------------------------------------

 Electric dipole moment (input orientation):
 (Debye = 10**-18 statcoulomb cm , SI units = C m)
                  (au)            (Debye)         (10**-30 SI)
   Tot        0.152820D+01      0.388430D+01      0.129566D+02
   x         -0.134884D+01     -0.342841D+01     -0.114360D+02
   y         -0.197882D+00     -0.502965D+00     -0.167771D+01
   z          0.690554D+00      0.175521D+01      0.585476D+01

 Dipole polarizability, Alpha (input orientation).
 (esu units = cm**3 , SI units = C**2 m**2 J**-1)
 Alpha(0;0):
               (au)            (10**-24 esu)      (10**-40 SI)
   iso        0.588632D+02      0.872262D+01      0.970523D+01
   aniso      0.497064D+02      0.736572D+01      0.819547D+01
   xx         0.854035D+02      0.126555D+02      0.140811D+02
   yx        -0.863404D+01     -0.127943D+01     -0.142356D+01
   yy         0.380801D+02      0.564288D+01      0.627855D+01
   zx         0.372317D+01      0.551717D+00      0.613868D+00
   zy        -0.122649D+02     -0.181747D+01     -0.202221D+01
   zz         0.531059D+02      0.786948D+01      0.875598D+01

 ----------------------------------------------------------------------

 Dipole orientation:
     7         -2.72964550         -0.66885848         -1.38544311
     6         -0.72202600         -1.51431628         -0.63172789
     7          0.52238387         -2.03842766          5.45576835
     7         -0.74057641         -1.50657067          6.98803267
     8          1.67848634         -2.52522923         -5.37924552
     7          1.66676916         -2.52031299         -3.11078996
     6          1.72005081         -2.54273296         -0.74444908
     1         -4.01277361         -0.12849413         -0.06694697
     1          3.11048053         -3.12827594          0.66304980

 Electric dipole moment (dipole orientation):
 (Debye = 10**-18 statcoulomb cm , SI units = C m)
                  (au)            (Debye)         (10**-30 SI)
   Tot        0.152820D+01      0.388430D+01      0.129566D+02
   x          0.000000D+00      0.000000D+00      0.000000D+00
   y          0.000000D+00      0.000000D+00      0.000000D+00
   z          0.152820D+01      0.388430D+01      0.129566D+02

 Dipole polarizability, Alpha (dipole orientation).
 (esu units = cm**3 , SI units = C**2 m**2 J**-1)
 Alpha(0;0):
               (au)            (10**-24 esu)      (10**-40 SI)
   iso        0.588632D+02      0.872262D+01      0.970523D+01
   aniso      0.497064D+02      0.736572D+01      0.819547D+01
   xx         0.653291D+02      0.968078D+01      0.107713D+02
   yx        -0.146282D+02     -0.216768D+01     -0.241187D+01
   yy         0.367534D+02      0.544629D+01      0.605981D+01
   zx        -0.137285D+02     -0.203436D+01     -0.226353D+01
   zy         0.578139D+01      0.856714D+00      0.953223D+00
   zz         0.745070D+02      0.110408D+02      0.122845D+02

 ----------------------------------------------------------------------


 FESTINA LENTE!
     - IMPERATOR AUGUSTUS 
 Error termination request processed by link 9999.
 Error termination via Lnk1e in /software/kemi/g16/avx2/g16/l9999.exe at Wed Jun 23 02:18:34 2021.
 Job cpu time:       1 days 10 hours 28 minutes 47.3 seconds.
 Elapsed time:       0 days  8 hours 42 minutes 23.9 seconds.
 File lengths (MBytes):  RWF=     97 Int=      0 D2E=      0 Chk=      7 Scr=      1
