 Entering Gaussian System, Link 0=/software/kemi/g16/avx2/g16/g16
 Initial command:
 /software/kemi/g16/avx2/g16/l1.exe "/scratch/23935644/Gau-5487.inp" -scrdir="/scratch/23935644/"
 Entering Link 1 = /software/kemi/g16/avx2/g16/l1.exe PID=      5488.
  
 Copyright (c) 1988,1990,1992,1993,1995,1998,2003,2009,2016,
            Gaussian, Inc.  All Rights Reserved.
  
 This is part of the Gaussian(R) 16 program.  It is based on
 the Gaussian(R) 09 system (copyright 2009, Gaussian, Inc.),
 the Gaussian(R) 03 system (copyright 2003, Gaussian, Inc.),
 the Gaussian(R) 98 system (copyright 1998, Gaussian, Inc.),
 the Gaussian(R) 94 system (copyright 1995, Gaussian, Inc.),
 the Gaussian 92(TM) system (copyright 1992, Gaussian, Inc.),
 the Gaussian 90(TM) system (copyright 1990, Gaussian, Inc.),
 the Gaussian 88(TM) system (copyright 1988, Gaussian, Inc.),
 the Gaussian 86(TM) system (copyright 1986, Carnegie Mellon
 University), and the Gaussian 82(TM) system (copyright 1983,
 Carnegie Mellon University). Gaussian is a federally registered
 trademark of Gaussian, Inc.
  
 This software contains proprietary and confidential information,
 including trade secrets, belonging to Gaussian, Inc.
  
 This software is provided under written license and may be
 used, copied, transmitted, or stored only in accord with that
 written license.
  
 The following legend is applicable only to US Government
 contracts under FAR:
  
                    RESTRICTED RIGHTS LEGEND
  
 Use, reproduction and disclosure by the US Government is
 subject to restrictions as set forth in subparagraphs (a)
 and (c) of the Commercial Computer Software - Restricted
 Rights clause in FAR 52.227-19.
  
 Gaussian, Inc.
 340 Quinnipiac St., Bldg. 40, Wallingford CT 06492
  
  
 ---------------------------------------------------------------
 Warning -- This program may not be used in any manner that
 competes with the business of Gaussian, Inc. or will provide
 assistance to any competitor of Gaussian, Inc.  The licensee
 of this program is prohibited from giving any competitor of
 Gaussian, Inc. access to this program.  By using this program,
 the user acknowledges that Gaussian, Inc. is engaged in the
 business of creating and licensing software in the field of
 computational chemistry and represents and warrants to the
 licensee that it is not a competitor of Gaussian, Inc. and that
 it will not use this program in any manner prohibited above.
 ---------------------------------------------------------------
  

 Cite this work as:
 Gaussian 16, Revision A.03,
 M. J. Frisch, G. W. Trucks, H. B. Schlegel, G. E. Scuseria, 
 M. A. Robb, J. R. Cheeseman, G. Scalmani, V. Barone, 
 G. A. Petersson, H. Nakatsuji, X. Li, M. Caricato, A. V. Marenich, 
 J. Bloino, B. G. Janesko, R. Gomperts, B. Mennucci, H. P. Hratchian, 
 J. V. Ortiz, A. F. Izmaylov, J. L. Sonnenberg, D. Williams-Young, 
 F. Ding, F. Lipparini, F. Egidi, J. Goings, B. Peng, A. Petrone, 
 T. Henderson, D. Ranasinghe, V. G. Zakrzewski, J. Gao, N. Rega, 
 G. Zheng, W. Liang, M. Hada, M. Ehara, K. Toyota, R. Fukuda, 
 J. Hasegawa, M. Ishida, T. Nakajima, Y. Honda, O. Kitao, H. Nakai, 
 T. Vreven, K. Throssell, J. A. Montgomery, Jr., J. E. Peralta, 
 F. Ogliaro, M. J. Bearpark, J. J. Heyd, E. N. Brothers, K. N. Kudin, 
 V. N. Staroverov, T. A. Keith, R. Kobayashi, J. Normand, 
 K. Raghavachari, A. P. Rendell, J. C. Burant, S. S. Iyengar, 
 J. Tomasi, M. Cossi, J. M. Millam, M. Klene, C. Adamo, R. Cammi, 
 J. W. Ochterski, R. L. Martin, K. Morokuma, O. Farkas, 
 J. B. Foresman, and D. J. Fox, Gaussian, Inc., Wallingford CT, 2016.
 
 ******************************************
 Gaussian 16:  ES64L-G16RevA.03 25-Dec-2016
                24-Jun-2021 
 ******************************************
 %nprocshared=4
 Will use up to    4 processors via shared memory.
 %mem=8GB
 ---------------------
 #opt UwB97XD/Def2TZVP
 ---------------------
 1/18=20,19=15,26=3,38=1/1,3;
 2/9=110,12=2,17=6,18=5,40=1/2;
 3/5=44,7=101,11=2,25=1,30=1,71=1,74=-58,116=2/1,2,3;
 4//1;
 5/5=2,38=5/2;
 6/7=2,8=2,9=2,10=2,28=1/1;
 7//1,2,3,16;
 1/18=20,19=15,26=3/3(2);
 2/9=110/2;
 99//99;
 2/9=110/2;
 3/5=44,7=101,11=2,25=1,30=1,71=1,74=-58,116=2/1,2,3;
 4/5=5,16=3,69=1/1;
 5/5=2,38=5/2;
 7//1,2,3,16;
 1/18=20,19=15,26=3/3(-5);
 2/9=110/2;
 6/7=2,8=2,9=2,10=2,19=2,28=1/1;
 99/9=1/99;
 ---------------
 something title
 ---------------
 Symbolic Z-matrix:
 Charge =  0 Multiplicity = 1
 N                    -0.44846   2.37148   0.05339 
 C                    -1.03034   1.32662  -0.01209 
 N                     2.51471   0.21663   0.00917 
 N                     2.96492  -0.77343   0.01945 
 O                    -1.46125  -2.0284   -0.01118 
 N                    -0.84931  -0.98844  -0.05664 
 C                    -1.6564    0.15857   0.04122 
 H                    -0.21763   2.90539  -0.77395 
 H                    -2.73306   0.08359   0.13469 
 
 Add virtual bond connecting atoms N1         and N3         Dist= 6.92D+00.
 Add virtual bond connecting atoms C2         and N3         Dist= 7.02D+00.
 Add virtual bond connecting atoms N6         and N3         Dist= 6.75D+00.

 GradGradGradGradGradGradGradGradGradGradGradGradGradGradGradGradGradGrad
 Berny optimization.
 Initialization pass.
                           ----------------------------
                           !    Initial Parameters    !
                           ! (Angstroms and Degrees)  !
 --------------------------                            --------------------------
 ! Name  Definition              Value          Derivative Info.                !
 --------------------------------------------------------------------------------
 ! R1    R(1,2)                  1.1977         estimate D2E/DX2                !
 ! R2    R(1,3)                  3.6641         estimate D2E/DX2                !
 ! R3    R(1,8)                  1.0114         estimate D2E/DX2                !
 ! R4    R(2,3)                  3.7148         estimate D2E/DX2                !
 ! R5    R(2,7)                  1.3263         estimate D2E/DX2                !
 ! R6    R(3,4)                  1.0877         estimate D2E/DX2                !
 ! R7    R(3,6)                  3.574          estimate D2E/DX2                !
 ! R8    R(5,6)                  1.2075         estimate D2E/DX2                !
 ! R9    R(6,7)                  1.4059         estimate D2E/DX2                !
 ! R10   R(7,9)                  1.0833         estimate D2E/DX2                !
 ! A1    A(2,1,8)              121.782          estimate D2E/DX2                !
 ! A2    A(3,1,8)               96.6622         estimate D2E/DX2                !
 ! A3    A(3,2,7)              100.7825         estimate D2E/DX2                !
 ! A4    A(1,3,4)              150.4526         estimate D2E/DX2                !
 ! A5    A(1,3,6)               55.7586         estimate D2E/DX2                !
 ! A6    A(2,3,4)              131.8396         estimate D2E/DX2                !
 ! A7    A(2,3,6)               37.0986         estimate D2E/DX2                !
 ! A8    A(4,3,6)               94.753          estimate D2E/DX2                !
 ! A9    A(3,6,5)              140.0601         estimate D2E/DX2                !
 ! A10   A(3,6,7)              105.3062         estimate D2E/DX2                !
 ! A11   A(5,6,7)              114.1483         estimate D2E/DX2                !
 ! A12   A(2,7,6)              116.4051         estimate D2E/DX2                !
 ! A13   A(2,7,9)              122.2458         estimate D2E/DX2                !
 ! A14   A(6,7,9)              121.3377         estimate D2E/DX2                !
 ! A15   L(1,2,7,3,-1)         179.0547         estimate D2E/DX2                !
 ! A16   L(1,2,7,3,-2)         174.4598         estimate D2E/DX2                !
 ! D1    D(8,1,7,6)             89.3543         estimate D2E/DX2                !
 ! D2    D(8,1,7,9)            -92.3783         estimate D2E/DX2                !
 ! D3    D(8,1,3,4)           -126.7217         estimate D2E/DX2                !
 ! D4    D(8,1,3,6)           -122.6557         estimate D2E/DX2                !
 ! D5    D(7,2,3,4)              1.9742         estimate D2E/DX2                !
 ! D6    D(7,2,3,6)              3.7232         estimate D2E/DX2                !
 ! D7    D(3,2,7,6)             -6.3826         estimate D2E/DX2                !
 ! D8    D(3,2,7,9)            174.8268         estimate D2E/DX2                !
 ! D9    D(1,3,6,5)           -173.8191         estimate D2E/DX2                !
 ! D10   D(1,3,6,7)             -2.8737         estimate D2E/DX2                !
 ! D11   D(2,3,6,5)           -174.5225         estimate D2E/DX2                !
 ! D12   D(2,3,6,7)             -3.5771         estimate D2E/DX2                !
 ! D13   D(4,3,6,5)              4.1701         estimate D2E/DX2                !
 ! D14   D(4,3,6,7)            175.1156         estimate D2E/DX2                !
 ! D15   D(3,6,7,2)              6.7584         estimate D2E/DX2                !
 ! D16   D(3,6,7,9)           -174.4392         estimate D2E/DX2                !
 ! D17   D(5,6,7,2)           -179.5985         estimate D2E/DX2                !
 ! D18   D(5,6,7,9)             -0.7961         estimate D2E/DX2                !
 --------------------------------------------------------------------------------
 Trust Radius=3.00D-01 FncErr=1.00D-07 GrdErr=1.00D-06 EigMax=2.50D+02 EigMin=1.00D-04
 Number of steps in this run=     54 maximum allowed number of steps=    100.
 GradGradGradGradGradGradGradGradGradGradGradGradGradGradGradGradGradGrad

                          Input orientation:                          
 ---------------------------------------------------------------------
 Center     Atomic      Atomic             Coordinates (Angstroms)
 Number     Number       Type             X           Y           Z
 ---------------------------------------------------------------------
      1          7           0       -0.448460    2.371480    0.053390
      2          6           0       -1.030340    1.326620   -0.012090
      3          7           0        2.514710    0.216630    0.009170
      4          7           0        2.964920   -0.773430    0.019450
      5          8           0       -1.461250   -2.028400   -0.011180
      6          7           0       -0.849310   -0.988440   -0.056640
      7          6           0       -1.656400    0.158570    0.041220
      8          1           0       -0.217630    2.905390   -0.773950
      9          1           0       -2.733060    0.083590    0.134690
 ---------------------------------------------------------------------
                    Distance matrix (angstroms):
                    1          2          3          4          5
     1  N    0.000000
     2  C    1.197750   0.000000
     3  N    3.664111   3.714823   0.000000
     4  N    4.641419   4.513680   1.087664   0.000000
     5  O    4.515402   3.382579   4.566052   4.600747   0.000000
     6  N    3.385535   2.322554   3.573955   3.821043   1.207499
     7  C    2.521158   1.326323   4.171637   4.714414   2.196285
     8  H    1.011352   1.932212   3.912594   4.928674   5.144968
     9  H    3.234262   2.113273   5.250957   5.763223   2.469672
                    6          7          8          9
     6  N    0.000000
     7  C    1.405917   0.000000
     8  H    4.009422   3.206179   0.000000
     9  H    2.175861   1.083308   3.887875   0.000000
 Stoichiometry    C2H2N4O
 Framework group  C1[X(C2H2N4O)]
 Deg. of freedom    21
 Full point group                 C1      NOp   1
 Largest Abelian subgroup         C1      NOp   1
 Largest concise Abelian subgroup C1      NOp   1
                         Standard orientation:                         
 ---------------------------------------------------------------------
 Center     Atomic      Atomic             Coordinates (Angstroms)
 Number     Number       Type             X           Y           Z
 ---------------------------------------------------------------------
      1          7           0        0.446999    2.336443   -0.082704
      2          6           0        1.016276    1.285206   -0.009020
      3          7           0       -2.542035    0.218289   -0.013366
      4          7           0       -3.004262   -0.766272   -0.013897
      5          8           0        1.406388   -2.074684    0.019253
      6          7           0        0.807224   -1.026990    0.056606
      7          6           0        1.627986    0.109195   -0.053105
      8          1           0        0.224392    2.880486    0.740276
      9          1           0        2.703459    0.020288   -0.148019
 ---------------------------------------------------------------------
 Rotational constants (GHZ):           2.5531518           1.6161841           0.9925474
 Standard basis: def2TZVP (5D, 7F)
 There are   264 symmetry adapted cartesian basis functions of A   symmetry.
 There are   229 symmetry adapted basis functions of A   symmetry.
   229 basis functions,   373 primitive gaussians,   264 cartesian basis functions
    25 alpha electrons       25 beta electrons
       nuclear repulsion energy       229.5957510099 Hartrees.
 NAtoms=    9 NActive=    9 NUniq=    9 SFac= 1.00D+00 NAtFMM=   60 NAOKFM=F Big=F
 Integral buffers will be    131072 words long.
 Raffenetti 2 integral format.
 Two-electron integral symmetry is turned on.
 Nuclear repulsion after empirical dispersion term =      229.5935247832 Hartrees.
 One-electron integrals computed using PRISM.
   1 Symmetry operations used in ECPInt.
 ECPInt:  NShTT=    3655 NPrTT=   11788 LenC2=    3473 LenP2D=    8592.
 LDataN:  DoStor=T MaxTD1= 6 Len=  172
 NBasis=   229 RedAO= T EigKep=  7.13D-05  NBF=   229
 NBsUse=   229 1.00D-06 EigRej= -1.00D+00 NBFU=   229
 ExpMin= 9.52D-02 ExpMax= 2.70D+04 ExpMxC= 9.22D+02 IAcc=3 IRadAn=         5 AccDes= 0.00D+00
 Harris functional with IExCor= 4639 and IRadAn=       5 diagonalized for initial guess.
 HarFok:  IExCor= 4639 AccDes= 0.00D+00 IRadAn=         5 IDoV= 1 UseB2=F ITyADJ=14
 ICtDFT=  3500011 ScaDFX=  1.000000  1.000000  1.000000  1.000000
 FoFCou: FMM=F IPFlag=           0 FMFlag=      100000 FMFlg1=           0
         NFxFlg=           0 DoJE=T BraDBF=F KetDBF=T FulRan=T
         wScrn=  0.000000 ICntrl=       500 IOpCl=  0 I1Cent=   200000004 NGrid=           0
         NMat0=    1 NMatS0=      1 NMatT0=    0 NMatD0=    1 NMtDS0=    0 NMtDT0=    0
 Petite list used in FoFCou.
 Initial guess <Sx>= 0.0000 <Sy>= 0.0000 <Sz>= 0.0000 <S**2>=-0.0000 S=-0.0000
 Requested convergence on RMS density matrix=1.00D-08 within 128 cycles.
 Requested convergence on MAX density matrix=1.00D-06.
 Requested convergence on             energy=1.00D-06.
 No special actions if energy rises.
 Integral accuracy reduced to 1.0D-05 until final iterations.
 Initial convergence to 1.0D-05 achieved.  Increase integral accuracy.
 SCF Done:  E(UwB97XD) =  -371.550699250     A.U. after   19 cycles
            NFock= 19  Conv=0.64D-08     -V/T= 2.0038
 <Sx>= 0.0000 <Sy>= 0.0000 <Sz>= 0.0000 <S**2>=-0.0000 S=-0.0000
 <L.S>=  0.00000000000    
 Annihilation of the first spin contaminant:
 S**2 before annihilation    -0.0000,   after     0.0000

 **********************************************************************

            Population analysis using the SCF density.

 **********************************************************************

 Orbital symmetries:
 Alpha Orbitals:
       Occupied  (A) (A) (A) (A) (A) (A) (A) (A) (A) (A) (A) (A)
                 (A) (A) (A) (A) (A) (A) (A) (A) (A) (A) (A) (A)
                 (A)
       Virtual   (A) (A) (A) (A) (A) (A) (A) (A) (A) (A) (A) (A)
                 (A) (A) (A) (A) (A) (A) (A) (A) (A) (A) (A) (A)
                 (A) (A) (A) (A) (A) (A) (A) (A) (A) (A) (A) (A)
                 (A) (A) (A) (A) (A) (A) (A) (A) (A) (A) (A) (A)
                 (A) (A) (A) (A) (A) (A) (A) (A) (A) (A) (A) (A)
                 (A) (A) (A) (A) (A) (A) (A) (A) (A) (A) (A) (A)
                 (A) (A) (A) (A) (A) (A) (A) (A) (A) (A) (A) (A)
                 (A) (A) (A) (A) (A) (A) (A) (A) (A) (A) (A) (A)
                 (A) (A) (A) (A) (A) (A) (A) (A) (A) (A) (A) (A)
                 (A) (A) (A) (A) (A) (A) (A) (A) (A) (A) (A) (A)
                 (A) (A) (A) (A) (A) (A) (A) (A) (A) (A) (A) (A)
                 (A) (A) (A) (A) (A) (A) (A) (A) (A) (A) (A) (A)
                 (A) (A) (A) (A) (A) (A) (A) (A) (A) (A) (A) (A)
                 (A) (A) (A) (A) (A) (A) (A) (A) (A) (A) (A) (A)
                 (A) (A) (A) (A) (A) (A) (A) (A) (A) (A) (A) (A)
                 (A) (A) (A) (A) (A) (A) (A) (A) (A) (A) (A) (A)
                 (A) (A) (A) (A) (A) (A) (A) (A) (A) (A) (A) (A)
 Beta  Orbitals:
       Occupied  (A) (A) (A) (A) (A) (A) (A) (A) (A) (A) (A) (A)
                 (A) (A) (A) (A) (A) (A) (A) (A) (A) (A) (A) (A)
                 (A)
       Virtual   (A) (A) (A) (A) (A) (A) (A) (A) (A) (A) (A) (A)
                 (A) (A) (A) (A) (A) (A) (A) (A) (A) (A) (A) (A)
                 (A) (A) (A) (A) (A) (A) (A) (A) (A) (A) (A) (A)
                 (A) (A) (A) (A) (A) (A) (A) (A) (A) (A) (A) (A)
                 (A) (A) (A) (A) (A) (A) (A) (A) (A) (A) (A) (A)
                 (A) (A) (A) (A) (A) (A) (A) (A) (A) (A) (A) (A)
                 (A) (A) (A) (A) (A) (A) (A) (A) (A) (A) (A) (A)
                 (A) (A) (A) (A) (A) (A) (A) (A) (A) (A) (A) (A)
                 (A) (A) (A) (A) (A) (A) (A) (A) (A) (A) (A) (A)
                 (A) (A) (A) (A) (A) (A) (A) (A) (A) (A) (A) (A)
                 (A) (A) (A) (A) (A) (A) (A) (A) (A) (A) (A) (A)
                 (A) (A) (A) (A) (A) (A) (A) (A) (A) (A) (A) (A)
                 (A) (A) (A) (A) (A) (A) (A) (A) (A) (A) (A) (A)
                 (A) (A) (A) (A) (A) (A) (A) (A) (A) (A) (A) (A)
                 (A) (A) (A) (A) (A) (A) (A) (A) (A) (A) (A) (A)
                 (A) (A) (A) (A) (A) (A) (A) (A) (A) (A) (A) (A)
                 (A) (A) (A) (A) (A) (A) (A) (A) (A) (A) (A) (A)
 The electronic state is 1-A.
 Alpha  occ. eigenvalues --  -19.28616 -14.54772 -14.52852 -14.52651 -14.50073
 Alpha  occ. eigenvalues --  -10.40715 -10.33557  -1.25313  -1.22594  -1.09069
 Alpha  occ. eigenvalues --   -0.93989  -0.77701  -0.70489  -0.63897  -0.63125
 Alpha  occ. eigenvalues --   -0.59727  -0.55364  -0.55141  -0.55076  -0.51709
 Alpha  occ. eigenvalues --   -0.51337  -0.49810  -0.48324  -0.35282  -0.31012
 Alpha virt. eigenvalues --   -0.01680   0.02362   0.06385   0.06428   0.08905
 Alpha virt. eigenvalues --    0.10951   0.15287   0.19065   0.22672   0.26949
 Alpha virt. eigenvalues --    0.27787   0.31545   0.31951   0.32919   0.35468
 Alpha virt. eigenvalues --    0.36317   0.37488   0.38049   0.38859   0.41897
 Alpha virt. eigenvalues --    0.43414   0.45089   0.46481   0.47615   0.47943
 Alpha virt. eigenvalues --    0.50356   0.51241   0.52553   0.53424   0.55868
 Alpha virt. eigenvalues --    0.56370   0.58556   0.60153   0.61783   0.63835
 Alpha virt. eigenvalues --    0.66766   0.67556   0.68320   0.72020   0.73745
 Alpha virt. eigenvalues --    0.79215   0.83689   0.86326   0.89078   0.92102
 Alpha virt. eigenvalues --    0.92664   0.94517   0.99798   1.06504   1.09209
 Alpha virt. eigenvalues --    1.14289   1.16958   1.18633   1.19844   1.20762
 Alpha virt. eigenvalues --    1.23659   1.28856   1.31133   1.33578   1.36144
 Alpha virt. eigenvalues --    1.37332   1.41547   1.44628   1.47302   1.49815
 Alpha virt. eigenvalues --    1.51076   1.52074   1.56906   1.59355   1.60314
 Alpha virt. eigenvalues --    1.62543   1.68100   1.73032   1.76227   1.77123
 Alpha virt. eigenvalues --    1.79052   1.83614   1.85699   1.90002   1.90828
 Alpha virt. eigenvalues --    1.96595   2.01061   2.02144   2.02312   2.05593
 Alpha virt. eigenvalues --    2.09739   2.11944   2.13798   2.15658   2.17705
 Alpha virt. eigenvalues --    2.19327   2.26737   2.28340   2.31548   2.33541
 Alpha virt. eigenvalues --    2.34698   2.37385   2.43883   2.51387   2.53323
 Alpha virt. eigenvalues --    2.64345   2.65524   2.65945   2.67932   2.70799
 Alpha virt. eigenvalues --    2.74278   2.77945   2.79667   2.83507   2.84677
 Alpha virt. eigenvalues --    2.85318   2.93114   2.98241   3.00129   3.01019
 Alpha virt. eigenvalues --    3.01610   3.05751   3.09400   3.13488   3.19231
 Alpha virt. eigenvalues --    3.20903   3.27090   3.33079   3.41093   3.44992
 Alpha virt. eigenvalues --    3.52128   3.55825   3.56308   3.61808   3.62946
 Alpha virt. eigenvalues --    3.64688   3.68986   3.69184   3.71022   3.72311
 Alpha virt. eigenvalues --    3.73711   3.81048   3.99250   3.99985   4.03536
 Alpha virt. eigenvalues --    4.12972   4.18100   4.18150   4.20554   4.24564
 Alpha virt. eigenvalues --    4.27009   4.32574   4.40947   4.44603   4.45863
 Alpha virt. eigenvalues --    4.49124   4.57894   4.58161   4.58791   4.60291
 Alpha virt. eigenvalues --    4.60644   4.62236   4.64683   4.72533   4.73917
 Alpha virt. eigenvalues --    4.76198   4.77162   4.80703   5.02969   5.03020
 Alpha virt. eigenvalues --    5.03472   5.05089   5.07986   5.09312   5.10275
 Alpha virt. eigenvalues --    5.10834   5.12159   5.21696   5.21981   5.26102
 Alpha virt. eigenvalues --    5.27513   5.38683   5.42850   5.48933   5.63989
 Alpha virt. eigenvalues --    5.68454   5.70875   5.74811   5.92448   6.07030
 Alpha virt. eigenvalues --    6.29126   6.36375   6.37217   6.37885   6.41490
 Alpha virt. eigenvalues --    6.42314   6.62905   6.66989   6.95583   7.11059
 Alpha virt. eigenvalues --    7.21173   7.47683  22.84118  23.42370  31.35535
 Alpha virt. eigenvalues --   32.14479  32.18491  32.21012  43.96829
  Beta  occ. eigenvalues --  -19.28616 -14.54772 -14.52852 -14.52651 -14.50073
  Beta  occ. eigenvalues --  -10.40715 -10.33557  -1.25313  -1.22594  -1.09069
  Beta  occ. eigenvalues --   -0.93989  -0.77701  -0.70489  -0.63897  -0.63125
  Beta  occ. eigenvalues --   -0.59727  -0.55364  -0.55141  -0.55076  -0.51709
  Beta  occ. eigenvalues --   -0.51337  -0.49810  -0.48324  -0.35282  -0.31012
  Beta virt. eigenvalues --   -0.01680   0.02362   0.06385   0.06428   0.08905
  Beta virt. eigenvalues --    0.10951   0.15287   0.19065   0.22672   0.26949
  Beta virt. eigenvalues --    0.27787   0.31545   0.31951   0.32919   0.35468
  Beta virt. eigenvalues --    0.36317   0.37488   0.38049   0.38859   0.41897
  Beta virt. eigenvalues --    0.43414   0.45089   0.46481   0.47615   0.47943
  Beta virt. eigenvalues --    0.50356   0.51241   0.52553   0.53424   0.55868
  Beta virt. eigenvalues --    0.56370   0.58556   0.60153   0.61783   0.63835
  Beta virt. eigenvalues --    0.66766   0.67556   0.68320   0.72020   0.73745
  Beta virt. eigenvalues --    0.79215   0.83689   0.86326   0.89078   0.92102
  Beta virt. eigenvalues --    0.92664   0.94517   0.99798   1.06504   1.09209
  Beta virt. eigenvalues --    1.14289   1.16958   1.18633   1.19844   1.20762
  Beta virt. eigenvalues --    1.23659   1.28856   1.31133   1.33578   1.36144
  Beta virt. eigenvalues --    1.37332   1.41547   1.44628   1.47302   1.49815
  Beta virt. eigenvalues --    1.51076   1.52074   1.56906   1.59355   1.60314
  Beta virt. eigenvalues --    1.62543   1.68100   1.73032   1.76227   1.77123
  Beta virt. eigenvalues --    1.79052   1.83614   1.85699   1.90002   1.90828
  Beta virt. eigenvalues --    1.96595   2.01061   2.02144   2.02312   2.05593
  Beta virt. eigenvalues --    2.09739   2.11944   2.13798   2.15658   2.17705
  Beta virt. eigenvalues --    2.19327   2.26737   2.28340   2.31548   2.33541
  Beta virt. eigenvalues --    2.34698   2.37385   2.43883   2.51387   2.53323
  Beta virt. eigenvalues --    2.64345   2.65524   2.65945   2.67932   2.70799
  Beta virt. eigenvalues --    2.74278   2.77945   2.79667   2.83507   2.84677
  Beta virt. eigenvalues --    2.85318   2.93114   2.98241   3.00129   3.01019
  Beta virt. eigenvalues --    3.01610   3.05751   3.09400   3.13488   3.19231
  Beta virt. eigenvalues --    3.20903   3.27090   3.33079   3.41093   3.44992
  Beta virt. eigenvalues --    3.52128   3.55825   3.56308   3.61808   3.62946
  Beta virt. eigenvalues --    3.64688   3.68986   3.69184   3.71022   3.72311
  Beta virt. eigenvalues --    3.73711   3.81048   3.99250   3.99985   4.03536
  Beta virt. eigenvalues --    4.12972   4.18100   4.18150   4.20554   4.24564
  Beta virt. eigenvalues --    4.27009   4.32574   4.40947   4.44603   4.45863
  Beta virt. eigenvalues --    4.49124   4.57894   4.58161   4.58791   4.60291
  Beta virt. eigenvalues --    4.60644   4.62236   4.64683   4.72533   4.73917
  Beta virt. eigenvalues --    4.76198   4.77162   4.80703   5.02969   5.03020
  Beta virt. eigenvalues --    5.03472   5.05089   5.07986   5.09312   5.10275
  Beta virt. eigenvalues --    5.10834   5.12159   5.21696   5.21981   5.26102
  Beta virt. eigenvalues --    5.27513   5.38683   5.42850   5.48933   5.63989
  Beta virt. eigenvalues --    5.68454   5.70875   5.74811   5.92448   6.07030
  Beta virt. eigenvalues --    6.29126   6.36375   6.37217   6.37885   6.41490
  Beta virt. eigenvalues --    6.42314   6.62905   6.66989   6.95583   7.11059
  Beta virt. eigenvalues --    7.21173   7.47683  22.84118  23.42370  31.35535
  Beta virt. eigenvalues --   32.14479  32.18491  32.21012  43.96829
          Condensed to atoms (all electrons):
               1          2          3          4          5          6
     1  N    6.277743   0.666019  -0.001118   0.000008   0.000027  -0.002080
     2  C    0.666019   4.825902   0.001038  -0.000403   0.013672  -0.032090
     3  N   -0.001118   0.001038   6.347154   0.657861  -0.000178   0.001921
     4  N    0.000008  -0.000403   0.657861   6.337276   0.000082  -0.000856
     5  O    0.000027   0.013672  -0.000178   0.000082   8.117982   0.231772
     6  N   -0.002080  -0.032090   0.001921  -0.000856   0.231772   6.456610
     7  C   -0.051364   0.492078   0.000653   0.000280  -0.091514   0.304704
     8  H    0.346010  -0.044122  -0.000001  -0.000038   0.000023  -0.000145
     9  H   -0.001999  -0.026847   0.000027  -0.000000   0.015179  -0.020194
               7          8          9
     1  N   -0.051364   0.346010  -0.001999
     2  C    0.492078  -0.044122  -0.026847
     3  N    0.000653  -0.000001   0.000027
     4  N    0.000280  -0.000038  -0.000000
     5  O   -0.091514   0.000023   0.015179
     6  N    0.304704  -0.000145  -0.020194
     7  C    5.046147  -0.002221   0.387691
     8  H   -0.002221   0.411470  -0.000119
     9  H    0.387691  -0.000119   0.492209
          Atomic-Atomic Spin Densities.
               1          2          3          4          5          6
     1  N   -0.000000   0.000000  -0.000000  -0.000000   0.000000  -0.000000
     2  C    0.000000   0.000000   0.000000   0.000000   0.000000  -0.000000
     3  N   -0.000000   0.000000  -0.000000  -0.000000  -0.000000   0.000000
     4  N   -0.000000   0.000000  -0.000000   0.000000   0.000000  -0.000000
     5  O    0.000000   0.000000  -0.000000   0.000000   0.000000   0.000000
     6  N   -0.000000  -0.000000   0.000000  -0.000000   0.000000  -0.000000
     7  C    0.000000  -0.000000  -0.000000  -0.000000  -0.000000   0.000000
     8  H   -0.000000   0.000000  -0.000000  -0.000000   0.000000  -0.000000
     9  H   -0.000000  -0.000000  -0.000000  -0.000000   0.000000   0.000000
               7          8          9
     1  N    0.000000  -0.000000  -0.000000
     2  C   -0.000000   0.000000  -0.000000
     3  N   -0.000000  -0.000000  -0.000000
     4  N   -0.000000  -0.000000  -0.000000
     5  O   -0.000000   0.000000   0.000000
     6  N    0.000000  -0.000000   0.000000
     7  C   -0.000000   0.000000   0.000000
     8  H    0.000000  -0.000000  -0.000000
     9  H    0.000000  -0.000000  -0.000000
 Mulliken charges and spin densities:
               1          2
     1  N   -0.233245  -0.000000
     2  C    0.104754   0.000000
     3  N   -0.007357  -0.000000
     4  N    0.005791   0.000000
     5  O   -0.287045   0.000000
     6  N    0.060359  -0.000000
     7  C   -0.086454  -0.000000
     8  H    0.289143  -0.000000
     9  H    0.154053  -0.000000
 Sum of Mulliken charges =  -0.00000  -0.00000
 Mulliken charges and spin densities with hydrogens summed into heavy atoms:
               1          2
     1  N    0.055898  -0.000000
     2  C    0.104754   0.000000
     3  N   -0.007357  -0.000000
     4  N    0.005791   0.000000
     5  O   -0.287045   0.000000
     6  N    0.060359  -0.000000
     7  C    0.067599  -0.000000
 Electronic spatial extent (au):  <R**2>=           1024.0302
 Charge=             -0.0000 electrons
 Dipole moment (field-independent basis, Debye):
    X=              0.6914    Y=              4.0510    Z=              1.2531  Tot=              4.2964
 Quadrupole moment (field-independent basis, Debye-Ang):
   XX=            -36.5175   YY=            -39.7977   ZZ=            -37.4573
   XY=              2.9996   XZ=             -0.0470   YZ=              4.5831
 Traceless Quadrupole moment (field-independent basis, Debye-Ang):
   XX=              1.4067   YY=             -1.8735   ZZ=              0.4668
   XY=              2.9996   XZ=             -0.0470   YZ=              4.5831
 Octapole moment (field-independent basis, Debye-Ang**2):
  XXX=              5.4363  YYY=             23.4870  ZZZ=              1.9548  XYY=             -4.9402
  XXY=              6.4366  XXZ=             -0.6690  XZZ=             -2.3165  YZZ=             -1.0917
  YYZ=             13.3741  XYZ=              0.5859
 Hexadecapole moment (field-independent basis, Debye-Ang**3):
 XXXX=           -733.9413 YYYY=           -462.6975 ZZZZ=            -37.2643 XXXY=            -10.6443
 XXXZ=             -2.1563 YYYX=              5.4306 YYYZ=             42.2695 ZZZX=              0.7143
 ZZZY=              5.3973 XXYY=           -228.7508 XXZZ=           -131.9208 YYZZ=            -79.3227
 XXYZ=              0.3747 YYXZ=              2.5633 ZZXY=             -3.7245
 N-N= 2.295935247832D+02 E-N=-1.329170537541D+03  KE= 3.701269070398D+02
                          Isotropic Fermi Contact Couplings
        Atom                 a.u.       MegaHertz       Gauss      10(-4) cm-1
     1  N(14)             -0.00000      -0.00000      -0.00000      -0.00000
     2  C(13)             -0.00000      -0.00000      -0.00000      -0.00000
     3  N(14)              0.00000       0.00000       0.00000       0.00000
     4  N(14)              0.00000       0.00000       0.00000       0.00000
     5  O(17)              0.00000      -0.00000      -0.00000      -0.00000
     6  N(14)             -0.00000      -0.00000      -0.00000      -0.00000
     7  C(13)              0.00000       0.00000       0.00000       0.00000
     8  H(1)              -0.00000      -0.00000      -0.00000      -0.00000
     9  H(1)              -0.00000      -0.00000      -0.00000      -0.00000
 --------------------------------------------------------
       Center         ----  Spin Dipole Couplings  ----
                      3XX-RR        3YY-RR        3ZZ-RR
 --------------------------------------------------------
     1   Atom        0.000000     -0.000000      0.000000
     2   Atom       -0.000000      0.000000     -0.000000
     3   Atom        0.000000      0.000000     -0.000000
     4   Atom       -0.000000      0.000000     -0.000000
     5   Atom       -0.000000      0.000000      0.000000
     6   Atom       -0.000000      0.000000      0.000000
     7   Atom        0.000000     -0.000000      0.000000
     8   Atom       -0.000000     -0.000000      0.000000
     9   Atom        0.000000     -0.000000      0.000000
 --------------------------------------------------------
                        XY            XZ            YZ
 --------------------------------------------------------
     1   Atom        0.000000     -0.000000      0.000000
     2   Atom       -0.000000      0.000000     -0.000000
     3   Atom        0.000000      0.000000     -0.000000
     4   Atom        0.000000      0.000000      0.000000
     5   Atom        0.000000      0.000000      0.000000
     6   Atom       -0.000000      0.000000     -0.000000
     7   Atom        0.000000     -0.000000      0.000000
     8   Atom        0.000000     -0.000000      0.000000
     9   Atom       -0.000000     -0.000000      0.000000
 --------------------------------------------------------


 ---------------------------------------------------------------------------------
              Anisotropic Spin Dipole Couplings in Principal Axis System
 ---------------------------------------------------------------------------------

       Atom             a.u.   MegaHertz   Gauss  10(-4) cm-1        Axes

              Baa    -0.0000    -0.000    -0.000    -0.000 -0.2377  0.8800 -0.4113
     1 N(14)  Bbb     0.0000     0.000     0.000     0.000  0.3289  0.4713  0.8183
              Bcc     0.0000     0.000     0.000     0.000  0.9139  0.0592 -0.4015
 
              Baa    -0.0000    -0.000    -0.000    -0.000  0.0022  0.0284  0.9996
     2 C(13)  Bbb    -0.0000    -0.000    -0.000    -0.000  0.8738  0.4860 -0.0157
              Bcc     0.0000     0.000     0.000     0.000 -0.4863  0.8735 -0.0238
 
              Baa    -0.0000    -0.000    -0.000    -0.000 -0.1853  0.1628  0.9691
     3 N(14)  Bbb    -0.0000    -0.000    -0.000    -0.000 -0.5867  0.7728 -0.2420
              Bcc     0.0000     0.000     0.000     0.000  0.7883  0.6134  0.0477
 
              Baa    -0.0000    -0.000    -0.000    -0.000  0.8918 -0.4524 -0.0082
     4 N(14)  Bbb    -0.0000    -0.000    -0.000    -0.000 -0.0037 -0.0253  0.9997
              Bcc     0.0000     0.000     0.000     0.000  0.4525  0.8914  0.0242
 
              Baa    -0.0000     0.000     0.000     0.000  0.9954 -0.0785 -0.0554
     5 O(17)  Bbb     0.0000    -0.000    -0.000    -0.000  0.0513 -0.0541  0.9972
              Bcc     0.0000    -0.000    -0.000    -0.000  0.0813  0.9954  0.0499
 
              Baa    -0.0000    -0.000    -0.000    -0.000  0.9075  0.4133 -0.0751
     6 N(14)  Bbb     0.0000     0.000     0.000     0.000  0.0299  0.1148  0.9929
              Bcc     0.0000     0.000     0.000     0.000 -0.4190  0.9033 -0.0918
 
              Baa    -0.0000    -0.000    -0.000    -0.000 -0.4976  0.8668 -0.0324
     7 C(13)  Bbb     0.0000     0.000     0.000     0.000  0.0186  0.0480  0.9987
              Bcc     0.0000     0.000     0.000     0.000  0.8672  0.4963 -0.0400
 
              Baa    -0.0000    -0.000    -0.000    -0.000 -0.4505  0.8351 -0.3157
     8 H(1)   Bbb    -0.0000    -0.000    -0.000    -0.000  0.8928  0.4242 -0.1519
              Bcc     0.0000     0.000     0.000     0.000 -0.0071  0.3503  0.9366
 
              Baa    -0.0000    -0.000    -0.000    -0.000  0.0431  0.9991 -0.0031
     9 H(1)   Bbb     0.0000     0.000     0.000     0.000  0.4213 -0.0153  0.9068
              Bcc     0.0000     0.000     0.000     0.000  0.9059 -0.0404 -0.4216
 

 ---------------------------------------------------------------------------------

   1 Symmetry operations used in ECPInt.
 ECPInt:  NShTT=    3655 NPrTT=   11788 LenC2=    3473 LenP2D=    8592.
 LDataN:  DoStor=T MaxTD1= 7 Len=  274
 Calling FoFJK, ICntrl=      2127 FMM=F ISym2X=0 I1Cent= 0 IOpClX= 1 NMat=1 NMatS=1 NMatT=0.
 ***** Axes restored to original set *****
 -------------------------------------------------------------------
 Center     Atomic                   Forces (Hartrees/Bohr)
 Number     Number              X              Y              Z
 -------------------------------------------------------------------
      1        7          -0.000431016   -0.000330704    0.001463950
      2        6          -0.000032624   -0.000086061   -0.000168563
      3        7           0.000081320   -0.000057598   -0.000307222
      4        7           0.000057089   -0.000032424    0.000176647
      5        8          -0.000105376   -0.000057702   -0.000132584
      6        7           0.000040333   -0.000047999    0.000408477
      7        6          -0.000036697   -0.000166466   -0.000328801
      8        1           0.000383768    0.000766161   -0.001196517
      9        1           0.000043203    0.000012791    0.000084613
 -------------------------------------------------------------------
 Cartesian Forces:  Max     0.001463950 RMS     0.000435894

 GradGradGradGradGradGradGradGradGradGradGradGradGradGradGradGradGradGrad
 Berny optimization.
 FormGI is forming the generalized inverse of G from B-inverse, IUseBI=4.
 Internal  Forces:  Max     0.001470975 RMS     0.000243154
 Search for a local minimum.
 Step number   1 out of a maximum of   54
 All quantities printed in internal units (Hartrees-Bohrs-Radians)
 Mixed Optimization -- En-DIIS/RFO-DIIS
 Second derivative matrix not updated -- first step.
 ITU=  0
     Eigenvalues ---    0.00235   0.00568   0.00868   0.01118   0.01347
     Eigenvalues ---    0.01607   0.01688   0.04783   0.05243   0.09804
     Eigenvalues ---    0.15991   0.21395   0.24503   0.24974   0.35598
     Eigenvalues ---    0.42933   0.45747   0.57560   1.01144   1.03049
     Eigenvalues ---    1.89764
 RFO step:  Lambda=-2.73817264D-05 EMin= 2.35213558D-03
 Linear search not attempted -- first point.
 Iteration  1 RMS(Cart)=  0.00697362 RMS(Int)=  0.00008071
 Iteration  2 RMS(Cart)=  0.00006468 RMS(Int)=  0.00003641
 Iteration  3 RMS(Cart)=  0.00000001 RMS(Int)=  0.00003641
 Variable       Old X    -DE/DX   Delta X   Delta X   Delta X     New X
                                 (Linear)    (Quad)   (Total)
    R1        2.26342   0.00032   0.00000   0.00037   0.00040   2.26382
    R2        6.92417   0.00024   0.00000   0.01797   0.01797   6.94213
    R3        1.91118   0.00147   0.00000   0.00322   0.00322   1.91439
    R4        7.02000  -0.00006   0.00000   0.00073   0.00071   7.02070
    R5        2.50639   0.00019   0.00000   0.00041   0.00043   2.50682
    R6        2.05539   0.00005   0.00000   0.00003   0.00003   2.05542
    R7        6.75380   0.00004   0.00000  -0.00037  -0.00037   6.75343
    R8        2.28184   0.00010   0.00000   0.00010   0.00010   2.28194
    R9        2.65680  -0.00000   0.00000   0.00005   0.00007   2.65687
   R10        2.04715  -0.00004   0.00000  -0.00010  -0.00010   2.04705
    A1        2.12550  -0.00015   0.00000  -0.00060  -0.00060   2.12489
    A2        1.68707  -0.00003   0.00000  -0.00061  -0.00060   1.68648
    A3        1.75899  -0.00006   0.00000  -0.00036  -0.00038   1.75861
    A4        2.62589   0.00006   0.00000  -0.00073  -0.00091   2.62498
    A5        0.97317   0.00009   0.00000  -0.00017  -0.00020   0.97298
    A6        2.30104   0.00002   0.00000   0.00052   0.00058   2.30162
    A7        0.64749   0.00005   0.00000   0.00024   0.00024   0.64774
    A8        1.65375  -0.00002   0.00000   0.00050   0.00061   1.65437
    A9        2.44451   0.00011   0.00000   0.00089   0.00087   2.44538
   A10        1.83794  -0.00007   0.00000   0.00019   0.00017   1.83810
   A11        1.99226  -0.00003   0.00000   0.00035   0.00033   1.99260
   A12        2.03165   0.00009   0.00000   0.00098   0.00098   2.03263
   A13        2.13359  -0.00006   0.00000  -0.00049  -0.00051   2.13309
   A14        2.11774  -0.00003   0.00000  -0.00033  -0.00035   2.11740
   A15        3.12509   0.00005   0.00000   0.00731   0.00730   3.13240
   A16        3.04490  -0.00019   0.00000  -0.01140  -0.01141   3.03349
    D1        1.55953   0.00006   0.00000   0.01011   0.01012   1.56964
    D2       -1.61231  -0.00010   0.00000  -0.00388  -0.00389  -1.61620
    D3       -2.21171  -0.00017   0.00000  -0.04727  -0.04725  -2.25896
    D4       -2.14075  -0.00002   0.00000  -0.01081  -0.01083  -2.15158
    D5        0.03446  -0.00002   0.00000  -0.02060  -0.02061   0.01385
    D6        0.06498  -0.00005   0.00000  -0.00481  -0.00480   0.06018
    D7       -0.11140   0.00008   0.00000   0.00818   0.00818  -0.10322
    D8        3.05130   0.00001   0.00000  -0.00019  -0.00019   3.05111
    D9       -3.03372   0.00002   0.00000  -0.00239  -0.00240  -3.03612
   D10       -0.05016   0.00014   0.00000   0.01086   0.01086  -0.03930
   D11       -3.04599  -0.00008   0.00000  -0.00866  -0.00866  -3.05465
   D12       -0.06243   0.00005   0.00000   0.00460   0.00460  -0.05783
   D13        0.07278  -0.00006   0.00000  -0.02045  -0.02045   0.05233
   D14        3.05634   0.00007   0.00000  -0.00719  -0.00720   3.04915
   D15        0.11796  -0.00009   0.00000  -0.00863  -0.00864   0.10932
   D16       -3.04454  -0.00002   0.00000  -0.00034  -0.00035  -3.04488
   D17       -3.13458   0.00002   0.00000   0.00073   0.00073  -3.13386
   D18       -0.01389   0.00008   0.00000   0.00903   0.00902  -0.00488
         Item               Value     Threshold  Converged?
 Maximum Force            0.001471     0.000450     NO 
 RMS     Force            0.000243     0.000300     YES
 Maximum Displacement     0.020876     0.001800     NO 
 RMS     Displacement     0.006967     0.001200     NO 
 Predicted change in Energy=-1.367494D-05
 GradGradGradGradGradGradGradGradGradGradGradGradGradGradGradGradGradGrad

                          Input orientation:                          
 ---------------------------------------------------------------------
 Center     Atomic      Atomic             Coordinates (Angstroms)
 Number     Number       Type             X           Y           Z
 ---------------------------------------------------------------------
      1          7           0       -0.453771    2.374029    0.056872
      2          6           0       -1.028340    1.325660   -0.019959
      3          7           0        2.516186    0.212693   -0.001877
      4          7           0        2.966207   -0.777137    0.025770
      5          8           0       -1.461614   -2.029937   -0.004965
      6          7           0       -0.848527   -0.990637   -0.051436
      7          6           0       -1.654948    0.157754    0.035672
      8          1           0       -0.220529    2.915668   -0.766841
      9          1           0       -2.731485    0.083917    0.130826
 ---------------------------------------------------------------------
                    Distance matrix (angstroms):
                    1          2          3          4          5
     1  N    0.000000
     2  C    1.197961   0.000000
     3  N    3.673618   3.715197   0.000000
     4  N    4.650491   4.514449   1.087680   0.000000
     5  O    4.518239   3.383486   4.566431   4.601743   0.000000
     6  N    3.389475   2.323479   3.573760   3.821484   1.207550
     7  C    2.520942   1.326550   4.171665   4.714784   2.196593
     8  H    1.013054   1.933525   3.921843   4.941693   5.155556
     9  H    3.230799   2.113140   5.250928   5.763344   2.469695
                    6          7          8          9
     6  N    0.000000
     7  C    1.405953   0.000000
     8  H    4.020623   3.210557   0.000000
     9  H    2.175641   1.083253   3.889668   0.000000
 Stoichiometry    C2H2N4O
 Framework group  C1[X(C2H2N4O)]
 Deg. of freedom    21
 Full point group                 C1      NOp   1
 Largest Abelian subgroup         C1      NOp   1
 Largest concise Abelian subgroup C1      NOp   1
                         Standard orientation:                         
 ---------------------------------------------------------------------
 Center     Atomic      Atomic             Coordinates (Angstroms)
 Number     Number       Type             X           Y           Z
 ---------------------------------------------------------------------
      1          7           0        0.460694    2.338399   -0.090226
      2          6           0        1.018894    1.282028   -0.003032
      3          7           0       -2.542663    0.224674   -0.003710
      4          7           0       -3.008186   -0.758214   -0.020038
      5          8           0        1.399505   -2.079921    0.017324
      6          7           0        0.802861   -1.030693    0.053581
      7          6           0        1.627028    0.103907   -0.047089
      8          1           0        0.237375    2.892420    0.727984
      9          1           0        2.702111    0.012177   -0.143102
 ---------------------------------------------------------------------
 Rotational constants (GHZ):           2.5480917           1.6153957           0.9914304
 Standard basis: def2TZVP (5D, 7F)
 There are   264 symmetry adapted cartesian basis functions of A   symmetry.
 There are   229 symmetry adapted basis functions of A   symmetry.
   229 basis functions,   373 primitive gaussians,   264 cartesian basis functions
    25 alpha electrons       25 beta electrons
       nuclear repulsion energy       229.5196092314 Hartrees.
 NAtoms=    9 NActive=    9 NUniq=    9 SFac= 1.00D+00 NAtFMM=   60 NAOKFM=F Big=F
 Integral buffers will be    131072 words long.
 Raffenetti 2 integral format.
 Two-electron integral symmetry is turned on.
 Nuclear repulsion after empirical dispersion term =      229.5173873268 Hartrees.
 One-electron integrals computed using PRISM.
   1 Symmetry operations used in ECPInt.
 ECPInt:  NShTT=    3655 NPrTT=   11788 LenC2=    3473 LenP2D=    8590.
 LDataN:  DoStor=T MaxTD1= 6 Len=  172
 NBasis=   229 RedAO= T EigKep=  7.16D-05  NBF=   229
 NBsUse=   229 1.00D-06 EigRej= -1.00D+00 NBFU=   229
 Initial guess from the checkpoint file:  "/scratch/23935644/Gau-5488.chk"
 B after Tr=    -0.000000   -0.000000   -0.000000
         Rot=    0.999999    0.000067    0.000003    0.001702 Ang=   0.20 deg.
 Initial guess <Sx>= 0.0000 <Sy>= 0.0000 <Sz>= 0.0000 <S**2>= 0.0000 S= 0.0000
 ExpMin= 9.52D-02 ExpMax= 2.70D+04 ExpMxC= 9.22D+02 IAcc=2 IRadAn=         4 AccDes= 0.00D+00
 Harris functional with IExCor= 4639 and IRadAn=       4 diagonalized for initial guess.
 HarFok:  IExCor= 4639 AccDes= 0.00D+00 IRadAn=         4 IDoV= 1 UseB2=F ITyADJ=14
 ICtDFT=  3500011 ScaDFX=  1.000000  1.000000  1.000000  1.000000
 FoFCou: FMM=F IPFlag=           0 FMFlag=      100000 FMFlg1=           0
         NFxFlg=           0 DoJE=T BraDBF=F KetDBF=T FulRan=T
         wScrn=  0.000000 ICntrl=       500 IOpCl=  0 I1Cent=   200000004 NGrid=           0
         NMat0=    1 NMatS0=      1 NMatT0=    0 NMatD0=    1 NMtDS0=    0 NMtDT0=    0
 Petite list used in FoFCou.
 Requested convergence on RMS density matrix=1.00D-08 within 128 cycles.
 Requested convergence on MAX density matrix=1.00D-06.
 Requested convergence on             energy=1.00D-06.
 No special actions if energy rises.
 Integral accuracy reduced to 1.0D-05 until final iterations.
 Initial convergence to 1.0D-05 achieved.  Increase integral accuracy.
 SCF Done:  E(UwB97XD) =  -371.550709880     A.U. after   13 cycles
            NFock= 13  Conv=0.70D-08     -V/T= 2.0039
 <Sx>= 0.0000 <Sy>= 0.0000 <Sz>= 0.0000 <S**2>=-0.0000 S=-0.0000
 <L.S>=  0.00000000000    
 Annihilation of the first spin contaminant:
 S**2 before annihilation    -0.0000,   after     0.0000
   1 Symmetry operations used in ECPInt.
 ECPInt:  NShTT=    3655 NPrTT=   11788 LenC2=    3473 LenP2D=    8590.
 LDataN:  DoStor=T MaxTD1= 7 Len=  274
 Calling FoFJK, ICntrl=      2127 FMM=F ISym2X=0 I1Cent= 0 IOpClX= 1 NMat=1 NMatS=1 NMatT=0.
 ***** Axes restored to original set *****
 -------------------------------------------------------------------
 Center     Atomic                   Forces (Hartrees/Bohr)
 Number     Number              X              Y              Z
 -------------------------------------------------------------------
      1        7           0.000057088    0.000291773   -0.000387185
      2        6          -0.000649868    0.000016078    0.001129880
      3        7           0.000076470   -0.000098015   -0.000306966
      4        7           0.000035136    0.000021562    0.000177003
      5        8          -0.000104611    0.000039269    0.000042921
      6        7           0.000007253    0.000025281   -0.000002214
      7        6           0.000485823   -0.000349595   -0.000379132
      8        1           0.000144796   -0.000023969   -0.000063836
      9        1          -0.000052088    0.000077617   -0.000210471
 -------------------------------------------------------------------
 Cartesian Forces:  Max     0.001129880 RMS     0.000314813

 GradGradGradGradGradGradGradGradGradGradGradGradGradGradGradGradGradGrad
 Berny optimization.
 Using GEDIIS/GDIIS optimizer.
 FormGI is forming the generalized inverse of G from B-inverse, IUseBI=4.
 Internal  Forces:  Max     0.000624989 RMS     0.000166651
 Search for a local minimum.
 Step number   2 out of a maximum of   54
 All quantities printed in internal units (Hartrees-Bohrs-Radians)
 Mixed Optimization -- En-DIIS/RFO-DIIS
 Swapping is turned off.
 Update second derivatives using D2CorX and points    1    2
 DE= -1.06D-05 DEPred=-1.37D-05 R= 7.77D-01
 TightC=F SS=  1.41D+00  RLast= 6.60D-02 DXNew= 5.0454D-01 1.9787D-01
 Trust test= 7.77D-01 RLast= 6.60D-02 DXMaxT set to 3.00D-01
 ITU=  1  0
     Eigenvalues ---    0.00129   0.00552   0.00926   0.01001   0.01369
     Eigenvalues ---    0.01641   0.03107   0.05055   0.05910   0.10971
     Eigenvalues ---    0.16013   0.21235   0.24537   0.24936   0.35606
     Eigenvalues ---    0.42725   0.44518   0.57539   1.01120   1.02668
     Eigenvalues ---    1.89762
 En-DIIS/RFO-DIIS/Sim-DIIS IScMMF=       -3 using points:     2    1
 RFO step:  Lambda=-3.71700618D-05.
 DidBck=F Rises=F RFO-DIIS coefs:    2.62088   -1.62088
 Iteration  1 RMS(Cart)=  0.00940176 RMS(Int)=  0.00038323
 Iteration  2 RMS(Cart)=  0.00028380 RMS(Int)=  0.00019704
 Iteration  3 RMS(Cart)=  0.00000019 RMS(Int)=  0.00019704
 Variable       Old X    -DE/DX   Delta X   Delta X   Delta X     New X
                                 (Linear)    (Quad)   (Total)
    R1        2.26382   0.00029   0.00065   0.00015   0.00093   2.26475
    R2        6.94213   0.00002   0.02912  -0.00498   0.02414   6.96627
    R3        1.91439   0.00007   0.00521  -0.00078   0.00443   1.91883
    R4        7.02070   0.00016   0.00114   0.00576   0.00680   7.02751
    R5        2.50682  -0.00001   0.00069  -0.00010   0.00068   2.50750
    R6        2.05542  -0.00000   0.00005  -0.00001   0.00004   2.05545
    R7        6.75343  -0.00003  -0.00060   0.00222   0.00160   6.75503
    R8        2.28194   0.00002   0.00016  -0.00001   0.00015   2.28209
    R9        2.65687  -0.00016   0.00011  -0.00011   0.00010   2.65697
   R10        2.04705   0.00003  -0.00017   0.00009  -0.00007   2.04698
    A1        2.12489   0.00026  -0.00098   0.00044  -0.00052   2.12438
    A2        1.68648  -0.00004  -0.00097  -0.00115  -0.00212   1.68436
    A3        1.75861  -0.00016  -0.00061  -0.00109  -0.00179   1.75682
    A4        2.62498   0.00007  -0.00148  -0.00023  -0.00263   2.62236
    A5        0.97298   0.00006  -0.00032   0.00007  -0.00027   0.97271
    A6        2.30162   0.00002   0.00095  -0.00022   0.00082   2.30244
    A7        0.64774   0.00001   0.00039  -0.00022   0.00020   0.64794
    A8        1.65437   0.00001   0.00100   0.00062   0.00247   1.65684
    A9        2.44538   0.00017   0.00141  -0.00005   0.00132   2.44670
   A10        1.83810  -0.00004   0.00027   0.00045   0.00059   1.83869
   A11        1.99260  -0.00012   0.00054  -0.00081  -0.00031   1.99229
   A12        2.03263   0.00021   0.00159   0.00107   0.00265   2.03528
   A13        2.13309  -0.00019  -0.00082  -0.00093  -0.00180   2.13128
   A14        2.11740  -0.00003  -0.00056  -0.00017  -0.00078   2.11662
   A15        3.13240  -0.00024   0.01184  -0.00575   0.00604   3.13843
   A16        3.03349   0.00062  -0.01849   0.03177   0.01323   3.04672
    D1        1.56964  -0.00023   0.01640  -0.01278   0.00365   1.57329
    D2       -1.61620   0.00002  -0.00631   0.00634  -0.00000  -1.61620
    D3       -2.25896   0.00013  -0.07658   0.00059  -0.07585  -2.33481
    D4       -2.15158   0.00011  -0.01756   0.02162   0.00395  -2.14763
    D5        0.01385  -0.00035  -0.03340  -0.03086  -0.06434  -0.05049
    D6        0.06018  -0.00012  -0.00779  -0.00104  -0.00880   0.05138
    D7       -0.10322   0.00018   0.01326   0.00172   0.01497  -0.08825
    D8        3.05111   0.00012  -0.00031   0.00452   0.00420   3.05531
    D9       -3.03612  -0.00011  -0.00389  -0.00669  -0.01059  -3.04671
   D10       -0.03930  -0.00009   0.01760  -0.01090   0.00669  -0.03261
   D11       -3.05465   0.00009  -0.01403   0.00519  -0.00886  -3.06351
   D12       -0.05783   0.00011   0.00746   0.00098   0.00842  -0.04941
   D13        0.05233  -0.00009  -0.03315  -0.01710  -0.05027   0.00206
   D14        3.04915  -0.00007  -0.01166  -0.02130  -0.03298   3.01617
   D15        0.10932  -0.00019  -0.01400  -0.00173  -0.01574   0.09358
   D16       -3.04488  -0.00013  -0.00056  -0.00451  -0.00508  -3.04997
   D17       -3.13386  -0.00015   0.00118  -0.00465  -0.00350  -3.13735
   D18       -0.00488  -0.00009   0.01462  -0.00742   0.00716   0.00229
         Item               Value     Threshold  Converged?
 Maximum Force            0.000625     0.000450     NO 
 RMS     Force            0.000167     0.000300     YES
 Maximum Displacement     0.038204     0.001800     NO 
 RMS     Displacement     0.009376     0.001200     NO 
 Predicted change in Energy=-1.839830D-05
 GradGradGradGradGradGradGradGradGradGradGradGradGradGradGradGradGradGrad

                          Input orientation:                          
 ---------------------------------------------------------------------
 Center     Atomic      Atomic             Coordinates (Angstroms)
 Number     Number       Type             X           Y           Z
 ---------------------------------------------------------------------
      1          7           0       -0.457678    2.379228    0.059234
      2          6           0       -1.026554    1.326759   -0.011328
      3          7           0        2.519650    0.207040   -0.022094
      4          7           0        2.969982   -0.780824    0.044368
      5          8           0       -1.463224   -2.030010   -0.009530
      6          7           0       -0.847821   -0.991763   -0.050613
      7          6           0       -1.652860    0.157841    0.034141
      8          1           0       -0.228945    2.919055   -0.769804
      9          1           0       -2.729369    0.084683    0.129686
 ---------------------------------------------------------------------
                    Distance matrix (angstroms):
                    1          2          3          4          5
     1  N    0.000000
     2  C    1.198453   0.000000
     3  N    3.686394   3.718798   0.000000
     4  N    4.662082   4.518552   1.087700   0.000000
     5  O    4.522967   3.385053   4.568133   4.606158   0.000000
     6  N    3.395270   2.325733   3.574606   3.824806   1.207628
     7  C    2.522628   1.326912   4.173179   4.717188   2.196488
     8  H    1.015399   1.935684   3.933049   4.958338   5.157005
     9  H    3.229626   2.112396   5.252639   5.765327   2.468690
                    6          7          8          9
     6  N    0.000000
     7  C    1.406008   0.000000
     8  H    4.024269   3.209076   0.000000
     9  H    2.175193   1.083215   3.885212   0.000000
 Stoichiometry    C2H2N4O
 Framework group  C1[X(C2H2N4O)]
 Deg. of freedom    21
 Full point group                 C1      NOp   1
 Largest Abelian subgroup         C1      NOp   1
 Largest concise Abelian subgroup C1      NOp   1
                         Standard orientation:                         
 ---------------------------------------------------------------------
 Center     Atomic      Atomic             Coordinates (Angstroms)
 Number     Number       Type             X           Y           Z
 ---------------------------------------------------------------------
      1          7           0        0.476244    2.341864   -0.091652
      2          6           0        1.023742    1.278820   -0.011201
      3          7           0       -2.544468    0.231679    0.017538
      4          7           0       -3.014926   -0.747449   -0.037868
      5          8           0        1.392064   -2.085981    0.021027
      6          7           0        0.797982   -1.035055    0.052445
      7          6           0        1.626058    0.096989   -0.045670
      8          1           0        0.260197    2.894770    0.732152
      9          1           0        2.700664    0.000953   -0.142382
 ---------------------------------------------------------------------
 Rotational constants (GHZ):           2.5416638           1.6124506           0.9894571
 Standard basis: def2TZVP (5D, 7F)
 There are   264 symmetry adapted cartesian basis functions of A   symmetry.
 There are   229 symmetry adapted basis functions of A   symmetry.
   229 basis functions,   373 primitive gaussians,   264 cartesian basis functions
    25 alpha electrons       25 beta electrons
       nuclear repulsion energy       229.3840268817 Hartrees.
 NAtoms=    9 NActive=    9 NUniq=    9 SFac= 1.00D+00 NAtFMM=   60 NAOKFM=F Big=F
 Integral buffers will be    131072 words long.
 Raffenetti 2 integral format.
 Two-electron integral symmetry is turned on.
 Nuclear repulsion after empirical dispersion term =      229.3818109534 Hartrees.
 One-electron integrals computed using PRISM.
   1 Symmetry operations used in ECPInt.
 ECPInt:  NShTT=    3655 NPrTT=   11788 LenC2=    3473 LenP2D=    8585.
 LDataN:  DoStor=T MaxTD1= 6 Len=  172
 NBasis=   229 RedAO= T EigKep=  7.13D-05  NBF=   229
 NBsUse=   229 1.00D-06 EigRej= -1.00D+00 NBFU=   229
 Initial guess from the checkpoint file:  "/scratch/23935644/Gau-5488.chk"
 B after Tr=     0.000000    0.000000   -0.000000
         Rot=    0.999998   -0.000012   -0.000033    0.002089 Ang=  -0.24 deg.
 Initial guess <Sx>= 0.0000 <Sy>= 0.0000 <Sz>= 0.0000 <S**2>=-0.0000 S=-0.0000
 ExpMin= 9.52D-02 ExpMax= 2.70D+04 ExpMxC= 9.22D+02 IAcc=2 IRadAn=         4 AccDes= 0.00D+00
 Harris functional with IExCor= 4639 and IRadAn=       4 diagonalized for initial guess.
 HarFok:  IExCor= 4639 AccDes= 0.00D+00 IRadAn=         4 IDoV= 1 UseB2=F ITyADJ=14
 ICtDFT=  3500011 ScaDFX=  1.000000  1.000000  1.000000  1.000000
 FoFCou: FMM=F IPFlag=           0 FMFlag=      100000 FMFlg1=           0
         NFxFlg=           0 DoJE=T BraDBF=F KetDBF=T FulRan=T
         wScrn=  0.000000 ICntrl=       500 IOpCl=  0 I1Cent=   200000004 NGrid=           0
         NMat0=    1 NMatS0=      1 NMatT0=    0 NMatD0=    1 NMtDS0=    0 NMtDT0=    0
 Petite list used in FoFCou.
 Requested convergence on RMS density matrix=1.00D-08 within 128 cycles.
 Requested convergence on MAX density matrix=1.00D-06.
 Requested convergence on             energy=1.00D-06.
 No special actions if energy rises.
 Integral accuracy reduced to 1.0D-05 until final iterations.
 Initial convergence to 1.0D-05 achieved.  Increase integral accuracy.
 SCF Done:  E(UwB97XD) =  -371.550727816     A.U. after   14 cycles
            NFock= 14  Conv=0.77D-08     -V/T= 2.0039
 <Sx>= 0.0000 <Sy>= 0.0000 <Sz>= 0.0000 <S**2>=-0.0000 S=-0.0000
 <L.S>=  0.00000000000    
 Annihilation of the first spin contaminant:
 S**2 before annihilation    -0.0000,   after    -0.0000
   1 Symmetry operations used in ECPInt.
 ECPInt:  NShTT=    3655 NPrTT=   11788 LenC2=    3473 LenP2D=    8585.
 LDataN:  DoStor=T MaxTD1= 7 Len=  274
 Calling FoFJK, ICntrl=      2127 FMM=F ISym2X=0 I1Cent= 0 IOpClX= 1 NMat=1 NMatS=1 NMatT=0.
 ***** Axes restored to original set *****
 -------------------------------------------------------------------
 Center     Atomic                   Forces (Hartrees/Bohr)
 Number     Number              X              Y              Z
 -------------------------------------------------------------------
      1        7           0.000174330    0.000312052   -0.001169570
      2        6          -0.000595821    0.000674663   -0.000436438
      3        7           0.000080511   -0.000149532   -0.000294319
      4        7           0.000003618    0.000082690    0.000164345
      5        8          -0.000029420    0.000165406    0.000030074
      6        7          -0.000007984    0.000093585   -0.000068518
      7        6           0.000835886   -0.000032503    0.000546391
      8        1          -0.000337477   -0.001224561    0.001521464
      9        1          -0.000123642    0.000078201   -0.000293429
 -------------------------------------------------------------------
 Cartesian Forces:  Max     0.001521464 RMS     0.000534803

 GradGradGradGradGradGradGradGradGradGradGradGradGradGradGradGradGradGrad
 Berny optimization.
 Using GEDIIS/GDIIS optimizer.
 FormGI is forming the generalized inverse of G from B-inverse, IUseBI=4.
 Internal  Forces:  Max     0.001969745 RMS     0.000359738
 Search for a local minimum.
 Step number   3 out of a maximum of   54
 All quantities printed in internal units (Hartrees-Bohrs-Radians)
 Mixed Optimization -- En-DIIS/RFO-DIIS
 Swapping is turned off.
 Update second derivatives using D2CorX and points    1    2    3
 DE= -1.79D-05 DEPred=-1.84D-05 R= 9.75D-01
 TightC=F SS=  1.41D+00  RLast= 1.24D-01 DXNew= 5.0454D-01 3.7227D-01
 Trust test= 9.75D-01 RLast= 1.24D-01 DXMaxT set to 3.72D-01
 ITU=  1  1  0
     Eigenvalues ---    0.00057   0.00556   0.00894   0.01080   0.01554
     Eigenvalues ---    0.01761   0.03579   0.05218   0.05785   0.11958
     Eigenvalues ---    0.15997   0.21202   0.24566   0.24832   0.35609
     Eigenvalues ---    0.42881   0.56499   0.69031   1.01195   1.07414
     Eigenvalues ---    1.89793
 En-DIIS/RFO-DIIS/Sim-DIIS IScMMF=       -3 using points:     3    2    1
 RFO step:  Lambda=-3.04947251D-05.
 DidBck=F Rises=F RFO-DIIS coefs:    1.56740    0.24793   -0.81533
 Iteration  1 RMS(Cart)=  0.00879817 RMS(Int)=  0.00049662
 Iteration  2 RMS(Cart)=  0.00028600 RMS(Int)=  0.00036347
 Iteration  3 RMS(Cart)=  0.00000019 RMS(Int)=  0.00036347
 Variable       Old X    -DE/DX   Delta X   Delta X   Delta X     New X
                                 (Linear)    (Quad)   (Total)
    R1        2.26475  -0.00079   0.00085  -0.00063   0.00047   2.26522
    R2        6.96627  -0.00015   0.02835  -0.01614   0.01220   6.97848
    R3        1.91883  -0.00197   0.00514  -0.00402   0.00111   1.91994
    R4        7.02751   0.00033   0.00444   0.00609   0.01036   7.03787
    R5        2.50750  -0.00044   0.00074  -0.00071   0.00017   2.50768
    R6        2.05545  -0.00006   0.00005  -0.00003   0.00001   2.05547
    R7        6.75503  -0.00016   0.00061   0.00113   0.00170   6.75673
    R8        2.28209  -0.00013   0.00016  -0.00012   0.00004   2.28213
    R9        2.65697  -0.00024   0.00011  -0.00018   0.00011   2.65708
   R10        2.04698   0.00009  -0.00013   0.00021   0.00008   2.04706
    A1        2.12438  -0.00033  -0.00078  -0.00100  -0.00170   2.12268
    A2        1.68436  -0.00025  -0.00169  -0.00127  -0.00292   1.68144
    A3        1.75682  -0.00016  -0.00132  -0.00122  -0.00269   1.75413
    A4        2.62236  -0.00010  -0.00223  -0.00035  -0.00429   2.61807
    A5        0.97271  -0.00018  -0.00031  -0.00035  -0.00063   0.97208
    A6        2.30244   0.00004   0.00094  -0.00014   0.00108   2.30351
    A7        0.64794  -0.00006   0.00031  -0.00041  -0.00005   0.64788
    A8        1.65684   0.00010   0.00190   0.00046   0.00389   1.66072
    A9        2.44670   0.00012   0.00146  -0.00038   0.00103   2.44774
   A10        1.83869   0.00001   0.00047   0.00081   0.00107   1.83976
   A11        1.99229  -0.00013   0.00010  -0.00084  -0.00081   1.99148
   A12        2.03528   0.00021   0.00230   0.00046   0.00276   2.03804
   A13        2.13128  -0.00019  -0.00144  -0.00054  -0.00205   2.12924
   A14        2.11662  -0.00002  -0.00072   0.00007  -0.00072   2.11590
   A15        3.13843  -0.00032   0.00938  -0.01095  -0.00165   3.13678
   A16        3.04672  -0.00034  -0.00179  -0.00188  -0.00382   3.04291
    D1        1.57329  -0.00006   0.01032  -0.00142   0.00894   1.58223
    D2       -1.61620  -0.00002  -0.00317   0.00634   0.00308  -1.61312
    D3       -2.33481  -0.00016  -0.08156  -0.00538  -0.08659  -2.42140
    D4       -2.14763   0.00005  -0.00659   0.00056  -0.00629  -2.15391
    D5       -0.05049   0.00001  -0.05331  -0.00199  -0.05549  -0.10598
    D6        0.05138   0.00000  -0.00891   0.00207  -0.00680   0.04458
    D7       -0.08825  -0.00001   0.01516  -0.00356   0.01158  -0.07667
    D8        3.05531   0.00021   0.00223   0.00564   0.00785   3.06317
    D9       -3.04671   0.00008  -0.00797   0.00261  -0.00536  -3.05207
   D10       -0.03261   0.00012   0.01265  -0.00207   0.01058  -0.02203
   D11       -3.06351  -0.00004  -0.01209   0.00268  -0.00944  -3.07295
   D12       -0.04941  -0.00000   0.00853  -0.00201   0.00650  -0.04291
   D13        0.00206  -0.00004  -0.04520  -0.00037  -0.04561  -0.04354
   D14        3.01617   0.00001  -0.02458  -0.00505  -0.02966   2.98650
   D15        0.09358   0.00002  -0.01597   0.00388  -0.01211   0.08146
   D16       -3.04997  -0.00020  -0.00317  -0.00523  -0.00842  -3.05839
   D17       -3.13735   0.00007  -0.00139   0.00061  -0.00084  -3.13820
   D18        0.00229  -0.00015   0.01142  -0.00851   0.00285   0.00514
         Item               Value     Threshold  Converged?
 Maximum Force            0.001970     0.000450     NO 
 RMS     Force            0.000360     0.000300     NO 
 Maximum Displacement     0.042620     0.001800     NO 
 RMS     Displacement     0.008817     0.001200     NO 
 Predicted change in Energy=-1.357349D-05
 GradGradGradGradGradGradGradGradGradGradGradGradGradGradGradGradGradGrad

                          Input orientation:                          
 ---------------------------------------------------------------------
 Center     Atomic      Atomic             Coordinates (Angstroms)
 Number     Number       Type             X           Y           Z
 ---------------------------------------------------------------------
      1          7           0       -0.459034    2.379847    0.063441
      2          6           0       -1.028319    1.327722   -0.012935
      3          7           0        2.521842    0.202729   -0.044647
      4          7           0        2.974365   -0.780772    0.060490
      5          8           0       -1.464986   -2.030117   -0.006460
      6          7           0       -0.847848   -0.992858   -0.047176
      7          6           0       -1.652534    0.157525    0.031070
      8          1           0       -0.231010    2.923423   -0.764062
      9          1           0       -2.729296    0.084511    0.124339
 ---------------------------------------------------------------------
                    Distance matrix (angstroms):
                    1          2          3          4          5
     1  N    0.000000
     2  C    1.198702   0.000000
     3  N    3.692851   3.724280   0.000000
     4  N    4.666665   4.524668   1.087706   0.000000
     5  O    4.523783   3.386119   4.569666   4.612286   0.000000
     6  N    3.396845   2.327839   3.575506   3.829607   1.207652
     7  C    2.522738   1.327005   4.175307   4.721172   2.195987
     8  H    1.015988   1.935499   3.936741   4.967431   5.160835
     9  H    3.228988   2.111336   5.255186   5.769276   2.467234
                    6          7          8          9
     6  N    0.000000
     7  C    1.406066   0.000000
     8  H    4.028855   3.209854   0.000000
     9  H    2.174853   1.083258   3.884599   0.000000
 Stoichiometry    C2H2N4O
 Framework group  C1[X(C2H2N4O)]
 Deg. of freedom    21
 Full point group                 C1      NOp   1
 Largest Abelian subgroup         C1      NOp   1
 Largest concise Abelian subgroup C1      NOp   1
                         Standard orientation:                         
 ---------------------------------------------------------------------
 Center     Atomic      Atomic             Coordinates (Angstroms)
 Number     Number       Type             X           Y           Z
 ---------------------------------------------------------------------
      1          7           0        0.482084    2.341948   -0.098428
      2          6           0        1.028067    1.278428   -0.010599
      3          7           0       -2.546064    0.232766    0.038757
      4          7           0       -3.020402   -0.741622   -0.054384
      5          8           0        1.390316   -2.088108    0.021285
      6          7           0        0.796345   -1.037036    0.050774
      7          6           0        1.626166    0.094264   -0.041846
      8          1           0        0.267429    2.899970    0.723014
      9          1           0        2.700903   -0.003648   -0.135659
 ---------------------------------------------------------------------
 Rotational constants (GHZ):           2.5399135           1.6089030           0.9879904
 Standard basis: def2TZVP (5D, 7F)
 There are   264 symmetry adapted cartesian basis functions of A   symmetry.
 There are   229 symmetry adapted basis functions of A   symmetry.
   229 basis functions,   373 primitive gaussians,   264 cartesian basis functions
    25 alpha electrons       25 beta electrons
       nuclear repulsion energy       229.2987529855 Hartrees.
 NAtoms=    9 NActive=    9 NUniq=    9 SFac= 1.00D+00 NAtFMM=   60 NAOKFM=F Big=F
 Integral buffers will be    131072 words long.
 Raffenetti 2 integral format.
 Two-electron integral symmetry is turned on.
 Nuclear repulsion after empirical dispersion term =      229.2965426864 Hartrees.
 One-electron integrals computed using PRISM.
   1 Symmetry operations used in ECPInt.
 ECPInt:  NShTT=    3655 NPrTT=   11788 LenC2=    3472 LenP2D=    8584.
 LDataN:  DoStor=T MaxTD1= 6 Len=  172
 NBasis=   229 RedAO= T EigKep=  7.13D-05  NBF=   229
 NBsUse=   229 1.00D-06 EigRej= -1.00D+00 NBFU=   229
 Initial guess from the checkpoint file:  "/scratch/23935644/Gau-5488.chk"
 B after Tr=    -0.000000   -0.000000    0.000000
         Rot=    1.000000    0.000023   -0.000010    0.000824 Ang=   0.09 deg.
 Initial guess <Sx>= 0.0000 <Sy>= 0.0000 <Sz>= 0.0000 <S**2>=-0.0000 S=-0.0000
 ExpMin= 9.52D-02 ExpMax= 2.70D+04 ExpMxC= 9.22D+02 IAcc=2 IRadAn=         4 AccDes= 0.00D+00
 Harris functional with IExCor= 4639 and IRadAn=       4 diagonalized for initial guess.
 HarFok:  IExCor= 4639 AccDes= 0.00D+00 IRadAn=         4 IDoV= 1 UseB2=F ITyADJ=14
 ICtDFT=  3500011 ScaDFX=  1.000000  1.000000  1.000000  1.000000
 FoFCou: FMM=F IPFlag=           0 FMFlag=      100000 FMFlg1=           0
         NFxFlg=           0 DoJE=T BraDBF=F KetDBF=T FulRan=T
         wScrn=  0.000000 ICntrl=       500 IOpCl=  0 I1Cent=   200000004 NGrid=           0
         NMat0=    1 NMatS0=      1 NMatT0=    0 NMatD0=    1 NMtDS0=    0 NMtDT0=    0
 Petite list used in FoFCou.
 Requested convergence on RMS density matrix=1.00D-08 within 128 cycles.
 Requested convergence on MAX density matrix=1.00D-06.
 Requested convergence on             energy=1.00D-06.
 No special actions if energy rises.
 Integral accuracy reduced to 1.0D-05 until final iterations.
 Initial convergence to 1.0D-05 achieved.  Increase integral accuracy.
 SCF Done:  E(UwB97XD) =  -371.550745071     A.U. after   14 cycles
            NFock= 14  Conv=0.54D-08     -V/T= 2.0039
 <Sx>= 0.0000 <Sy>= 0.0000 <Sz>= 0.0000 <S**2>=-0.0000 S=-0.0000
 <L.S>=  0.00000000000    
 Annihilation of the first spin contaminant:
 S**2 before annihilation    -0.0000,   after     0.0000
   1 Symmetry operations used in ECPInt.
 ECPInt:  NShTT=    3655 NPrTT=   11788 LenC2=    3472 LenP2D=    8584.
 LDataN:  DoStor=T MaxTD1= 7 Len=  274
 Calling FoFJK, ICntrl=      2127 FMM=F ISym2X=0 I1Cent= 0 IOpClX= 1 NMat=1 NMatS=1 NMatT=0.
 ***** Axes restored to original set *****
 -------------------------------------------------------------------
 Center     Atomic                   Forces (Hartrees/Bohr)
 Number     Number              X              Y              Z
 -------------------------------------------------------------------
      1        7          -0.000150038    0.000562501   -0.001818928
      2        6          -0.000113973    0.000334701    0.000027773
      3        7           0.000085218   -0.000163623   -0.000281375
      4        7          -0.000019240    0.000107343    0.000151035
      5        8           0.000079298    0.000173670    0.000080635
      6        7          -0.000059342    0.000169516   -0.000277782
      7        6           0.000560380    0.000320252    0.000583579
      8        1          -0.000260597   -0.001503832    0.001875684
      9        1          -0.000121707   -0.000000529   -0.000340621
 -------------------------------------------------------------------
 Cartesian Forces:  Max     0.001875684 RMS     0.000632722

 GradGradGradGradGradGradGradGradGradGradGradGradGradGradGradGradGradGrad
 Berny optimization.
 Using GEDIIS/GDIIS optimizer.
 FormGI is forming the generalized inverse of G from B-inverse, IUseBI=4.
 Internal  Forces:  Max     0.002391162 RMS     0.000416599
 Search for a local minimum.
 Step number   4 out of a maximum of   54
 All quantities printed in internal units (Hartrees-Bohrs-Radians)
 Mixed Optimization -- En-DIIS/RFO-DIIS
 Swapping is turned off.
 Update second derivatives using D2CorX and points    1    2    3    4
 DE= -1.73D-05 DEPred=-1.36D-05 R= 1.27D+00
 TightC=F SS=  1.41D+00  RLast= 1.21D-01 DXNew= 6.2608D-01 3.6439D-01
 Trust test= 1.27D+00 RLast= 1.21D-01 DXMaxT set to 3.72D-01
 ITU=  1  1  1  0
     Eigenvalues ---    0.00025   0.00560   0.00993   0.01176   0.01668
     Eigenvalues ---    0.01795   0.03631   0.05363   0.05867   0.12546
     Eigenvalues ---    0.16091   0.22699   0.24618   0.24889   0.35606
     Eigenvalues ---    0.42937   0.56365   0.77273   1.01244   1.12558
     Eigenvalues ---    1.89835
 En-DIIS/RFO-DIIS/Sim-DIIS IScMMF=       -3 using points:     4    3    2    1
 RFO step:  Lambda=-5.23483592D-05.
 DidBck=F Rises=F RFO-DIIS coefs:    2.87947   -1.02243   -0.33941   -0.51763
 Iteration  1 RMS(Cart)=  0.02335549 RMS(Int)=  0.00885848
 Iteration  2 RMS(Cart)=  0.00638845 RMS(Int)=  0.00218126
 Iteration  3 RMS(Cart)=  0.00006964 RMS(Int)=  0.00217944
 Iteration  4 RMS(Cart)=  0.00000013 RMS(Int)=  0.00217944
 Variable       Old X    -DE/DX   Delta X   Delta X   Delta X     New X
                                 (Linear)    (Quad)   (Total)
    R1        2.26522  -0.00093   0.00189  -0.00096   0.00239   2.26761
    R2        6.97848  -0.00011   0.05293  -0.00388   0.04896   7.02744
    R3        1.91994  -0.00239   0.00755  -0.00522   0.00233   1.92227
    R4        7.03787   0.00022   0.02567  -0.00210   0.02269   7.06056
    R5        2.50768  -0.00064   0.00114  -0.00116   0.00089   2.50857
    R6        2.05547  -0.00009   0.00007  -0.00005   0.00002   2.05549
    R7        6.75673  -0.00014   0.00438  -0.00368   0.00047   6.75720
    R8        2.28213  -0.00019   0.00026  -0.00020   0.00006   2.28220
    R9        2.65708  -0.00021   0.00033  -0.00029   0.00104   2.65812
   R10        2.04706   0.00009   0.00004   0.00020   0.00024   2.04730
    A1        2.12268  -0.00012  -0.00394  -0.00039  -0.00322   2.11946
    A2        1.68144  -0.00033  -0.00761  -0.00333  -0.01069   1.67075
    A3        1.75413   0.00002  -0.00678   0.00003  -0.00742   1.74671
    A4        2.61807  -0.00013  -0.01078  -0.00036  -0.02059   2.59748
    A5        0.97208  -0.00025  -0.00151  -0.00011  -0.00119   0.97089
    A6        2.30351   0.00002   0.00303  -0.00014   0.00428   2.30779
    A7        0.64788  -0.00012   0.00020  -0.00015   0.00039   0.64827
    A8        1.66072   0.00014   0.00974   0.00039   0.01958   1.68031
    A9        2.44774  -0.00001   0.00353  -0.00086   0.00259   2.45032
   A10        1.83976   0.00009   0.00260   0.00053   0.00210   1.84186
   A11        1.99148  -0.00008  -0.00161  -0.00037  -0.00209   1.98940
   A12        2.03804   0.00000   0.00797  -0.00110   0.00710   2.04514
   A13        2.12924  -0.00000  -0.00565   0.00089  -0.00499   2.12425
   A14        2.11590   0.00000  -0.00219   0.00023  -0.00214   2.11376
   A15        3.13678  -0.00006   0.00585  -0.00075   0.00467   3.14145
   A16        3.04291  -0.00005  -0.00174  -0.00105  -0.00400   3.03891
    D1        1.58223  -0.00024   0.02516  -0.01105   0.01425   1.59647
    D2       -1.61312  -0.00005   0.00378   0.00156   0.00489  -1.60823
    D3       -2.42140  -0.00004  -0.25220  -0.00316  -0.25208  -2.67347
    D4       -2.15391   0.00005  -0.01404   0.00260  -0.01360  -2.16751
    D5       -0.10598  -0.00008  -0.17010  -0.00115  -0.17283  -0.27882
    D6        0.04458   0.00000  -0.02281   0.00454  -0.01804   0.02654
    D7       -0.07667   0.00000   0.03882  -0.00773   0.03087  -0.04580
    D8        3.06317   0.00022   0.01826   0.00548   0.02371   3.08687
    D9       -3.05207   0.00002  -0.02040   0.00359  -0.01674  -3.06882
   D10       -0.02203   0.00002   0.03124  -0.00570   0.02572   0.00369
   D11       -3.07295   0.00001  -0.02982   0.00493  -0.02515  -3.09810
   D12       -0.04291   0.00000   0.02182  -0.00436   0.01731  -0.02559
   D13       -0.04354  -0.00005  -0.13939   0.00069  -0.13884  -0.18238
   D14        2.98650  -0.00006  -0.08774  -0.00860  -0.09638   2.89013
   D15        0.08146   0.00000  -0.04073   0.00824  -0.03255   0.04891
   D16       -3.05839  -0.00022  -0.02037  -0.00486  -0.02543  -3.08382
   D17       -3.13820   0.00000  -0.00420   0.00169  -0.00267  -3.14087
   D18        0.00514  -0.00022   0.01616  -0.01142   0.00445   0.00958
         Item               Value     Threshold  Converged?
 Maximum Force            0.002391     0.000450     NO 
 RMS     Force            0.000417     0.000300     NO 
 Maximum Displacement     0.124766     0.001800     NO 
 RMS     Displacement     0.026197     0.001200     NO 
 Predicted change in Energy=-1.023401D-05
 GradGradGradGradGradGradGradGradGradGradGradGradGradGradGradGradGradGrad

                          Input orientation:                          
 ---------------------------------------------------------------------
 Center     Atomic      Atomic             Coordinates (Angstroms)
 Number     Number       Type             X           Y           Z
 ---------------------------------------------------------------------
      1          7           0       -0.465674    2.385082    0.074097
      2          6           0       -1.029337    1.329309   -0.012750
      3          7           0        2.525503    0.183286   -0.110671
      4          7           0        2.991159   -0.774492    0.110590
      5          8           0       -1.472547   -2.030877   -0.002359
      6          7           0       -0.849003   -0.997321   -0.040579
      7          6           0       -1.650490    0.156739    0.025221
      8          1           0       -0.238353    2.934595   -0.751192
      9          1           0       -2.728079    0.085688    0.111702
 ---------------------------------------------------------------------
                    Distance matrix (angstroms):
                    1          2          3          4          5
     1  N    0.000000
     2  C    1.199965   0.000000
     3  N    3.718761   3.736287   0.000000
     4  N    4.683367   4.539336   1.087718   0.000000
     5  O    4.529938   3.389305   4.571504   4.638527   0.000000
     6  N    3.405986   2.333773   3.575757   3.849591   1.207686
     7  C    2.524221   1.327476   4.178288   4.734911   2.195015
     8  H    1.017223   1.935949   3.952072   4.992969   5.171064
     9  H    3.226004   2.108981   5.259191   5.783562   2.463578
                    6          7          8          9
     6  N    0.000000
     7  C    1.406615   0.000000
     8  H    4.042008   3.211453   0.000000
     9  H    2.174171   1.083386   3.880669   0.000000
 Stoichiometry    C2H2N4O
 Framework group  C1[X(C2H2N4O)]
 Deg. of freedom    21
 Full point group                 C1      NOp   1
 Largest Abelian subgroup         C1      NOp   1
[...]
                 (A) (A) (A) (A) (A) (A) (A) (A) (A) (A) (A) (A)
                 (A)
       Virtual   (A) (A) (A) (A) (A) (A) (A) (A) (A) (A) (A) (A)
                 (A) (A) (A) (A) (A) (A) (A) (A) (A) (A) (A) (A)
                 (A) (A) (A) (A) (A) (A) (A) (A) (A) (A) (A) (A)
                 (A) (A) (A) (A) (A) (A) (A) (A) (A) (A) (A) (A)
                 (A) (A) (A) (A) (A) (A) (A) (A) (A) (A) (A) (A)
                 (A) (A) (A) (A) (A) (A) (A) (A) (A) (A) (A) (A)
                 (A) (A) (A) (A) (A) (A) (A) (A) (A) (A) (A) (A)
                 (A) (A) (A) (A) (A) (A) (A) (A) (A) (A) (A) (A)
                 (A) (A) (A) (A) (A) (A) (A) (A) (A) (A) (A) (A)
                 (A) (A) (A) (A) (A) (A) (A) (A) (A) (A) (A) (A)
                 (A) (A) (A) (A) (A) (A) (A) (A) (A) (A) (A) (A)
                 (A) (A) (A) (A) (A) (A) (A) (A) (A) (A) (A) (A)
                 (A) (A) (A) (A) (A) (A) (A) (A) (A) (A) (A) (A)
                 (A) (A) (A) (A) (A) (A) (A) (A) (A) (A) (A) (A)
                 (A) (A) (A) (A) (A) (A) (A) (A) (A) (A) (A) (A)
                 (A) (A) (A) (A) (A) (A) (A) (A) (A) (A) (A) (A)
                 (A) (A) (A) (A) (A) (A) (A) (A) (A) (A) (A) (A)
 Beta  Orbitals:
       Occupied  (A) (A) (A) (A) (A) (A) (A) (A) (A) (A) (A) (A)
                 (A) (A) (A) (A) (A) (A) (A) (A) (A) (A) (A) (A)
                 (A)
       Virtual   (A) (A) (A) (A) (A) (A) (A) (A) (A) (A) (A) (A)
                 (A) (A) (A) (A) (A) (A) (A) (A) (A) (A) (A) (A)
                 (A) (A) (A) (A) (A) (A) (A) (A) (A) (A) (A) (A)
                 (A) (A) (A) (A) (A) (A) (A) (A) (A) (A) (A) (A)
                 (A) (A) (A) (A) (A) (A) (A) (A) (A) (A) (A) (A)
                 (A) (A) (A) (A) (A) (A) (A) (A) (A) (A) (A) (A)
                 (A) (A) (A) (A) (A) (A) (A) (A) (A) (A) (A) (A)
                 (A) (A) (A) (A) (A) (A) (A) (A) (A) (A) (A) (A)
                 (A) (A) (A) (A) (A) (A) (A) (A) (A) (A) (A) (A)
                 (A) (A) (A) (A) (A) (A) (A) (A) (A) (A) (A) (A)
                 (A) (A) (A) (A) (A) (A) (A) (A) (A) (A) (A) (A)
                 (A) (A) (A) (A) (A) (A) (A) (A) (A) (A) (A) (A)
                 (A) (A) (A) (A) (A) (A) (A) (A) (A) (A) (A) (A)
                 (A) (A) (A) (A) (A) (A) (A) (A) (A) (A) (A) (A)
                 (A) (A) (A) (A) (A) (A) (A) (A) (A) (A) (A) (A)
                 (A) (A) (A) (A) (A) (A) (A) (A) (A) (A) (A) (A)
                 (A) (A) (A) (A) (A) (A) (A) (A) (A) (A) (A) (A)
 The electronic state is 1-A.
 Alpha  occ. eigenvalues --  -19.28552 -14.55337 -14.55123 -14.54685 -14.49867
 Alpha  occ. eigenvalues --  -10.40549 -10.33486  -1.25237  -1.25044  -1.08887
 Alpha  occ. eigenvalues --   -0.93886  -0.77533  -0.70117  -0.66389  -0.63032
 Alpha  occ. eigenvalues --   -0.59651  -0.57587  -0.57540  -0.55277  -0.54151
 Alpha  occ. eigenvalues --   -0.51118  -0.49709  -0.48224  -0.35251  -0.30945
 Alpha virt. eigenvalues --   -0.01622   0.02515   0.03951   0.04022   0.09443
 Alpha virt. eigenvalues --    0.11764   0.15645   0.18622   0.22210   0.25687
 Alpha virt. eigenvalues --    0.28537   0.31265   0.31627   0.33285   0.35506
 Alpha virt. eigenvalues --    0.36461   0.37108   0.38775   0.39833   0.41356
 Alpha virt. eigenvalues --    0.42994   0.44483   0.46334   0.47444   0.48705
 Alpha virt. eigenvalues --    0.49273   0.49805   0.52032   0.53546   0.54807
 Alpha virt. eigenvalues --    0.56658   0.57494   0.59438   0.59775   0.61816
 Alpha virt. eigenvalues --    0.65680   0.67413   0.69319   0.72173   0.74220
 Alpha virt. eigenvalues --    0.81009   0.84320   0.85910   0.87318   0.90313
 Alpha virt. eigenvalues --    0.90975   0.95955   0.99635   1.06491   1.10094
 Alpha virt. eigenvalues --    1.14383   1.16317   1.17179   1.17738   1.20774
 Alpha virt. eigenvalues --    1.23133   1.28998   1.31052   1.33414   1.34017
 Alpha virt. eigenvalues --    1.37815   1.40685   1.43272   1.47179   1.48189
 Alpha virt. eigenvalues --    1.51089   1.54452   1.55666   1.58344   1.61008
 Alpha virt. eigenvalues --    1.61503   1.68644   1.72462   1.74038   1.75618
 Alpha virt. eigenvalues --    1.77559   1.83184   1.84775   1.90255   1.91068
 Alpha virt. eigenvalues --    1.96162   1.99872   2.00837   2.03970   2.04481
 Alpha virt. eigenvalues --    2.09453   2.12462   2.14576   2.14965   2.17131
 Alpha virt. eigenvalues --    2.17832   2.20304   2.27856   2.30837   2.32766
 Alpha virt. eigenvalues --    2.34048   2.35986   2.44524   2.51536   2.52816
 Alpha virt. eigenvalues --    2.64131   2.64958   2.66308   2.68243   2.70317
 Alpha virt. eigenvalues --    2.74371   2.78643   2.79865   2.83633   2.84962
 Alpha virt. eigenvalues --    2.86081   2.91481   2.98567   3.00714   3.01192
 Alpha virt. eigenvalues --    3.02309   3.06183   3.09739   3.13215   3.19387
 Alpha virt. eigenvalues --    3.21433   3.26842   3.33302   3.41167   3.45081
 Alpha virt. eigenvalues --    3.52018   3.53490   3.54225   3.61789   3.62990
 Alpha virt. eigenvalues --    3.64641   3.66558   3.66689   3.68777   3.70655
 Alpha virt. eigenvalues --    3.73381   3.80594   3.98966   4.00165   4.03657
 Alpha virt. eigenvalues --    4.13766   4.15700   4.15747   4.21634   4.22470
 Alpha virt. eigenvalues --    4.26965   4.32588   4.40915   4.42257   4.43329
 Alpha virt. eigenvalues --    4.50027   4.55615   4.56537   4.57886   4.58212
 Alpha virt. eigenvalues --    4.59529   4.60960   4.64481   4.73475   4.74595
 Alpha virt. eigenvalues --    4.76016   4.77385   4.80795   5.00562   5.00589
 Alpha virt. eigenvalues --    5.03516   5.05220   5.07132   5.07287   5.07899
 Alpha virt. eigenvalues --    5.08644   5.11545   5.21651   5.22982   5.26067
 Alpha virt. eigenvalues --    5.27724   5.38783   5.42233   5.48748   5.65037
 Alpha virt. eigenvalues --    5.69346   5.70463   5.74532   5.91872   6.07190
 Alpha virt. eigenvalues --    6.27216   6.34915   6.35908   6.36444   6.41571
 Alpha virt. eigenvalues --    6.42085   6.61327   6.66758   6.95615   7.11034
 Alpha virt. eigenvalues --    7.21140   7.47751  22.84226  23.43026  31.33844
 Alpha virt. eigenvalues --   32.15341  32.16527  32.19500  43.96727
  Beta  occ. eigenvalues --  -19.28552 -14.55337 -14.55123 -14.54685 -14.49867
  Beta  occ. eigenvalues --  -10.40549 -10.33486  -1.25237  -1.25044  -1.08887
  Beta  occ. eigenvalues --   -0.93886  -0.77533  -0.70117  -0.66389  -0.63032
  Beta  occ. eigenvalues --   -0.59651  -0.57587  -0.57540  -0.55277  -0.54151
  Beta  occ. eigenvalues --   -0.51118  -0.49709  -0.48224  -0.35251  -0.30945
  Beta virt. eigenvalues --   -0.01622   0.02515   0.03951   0.04022   0.09443
  Beta virt. eigenvalues --    0.11764   0.15645   0.18622   0.22210   0.25687
  Beta virt. eigenvalues --    0.28537   0.31265   0.31627   0.33285   0.35506
  Beta virt. eigenvalues --    0.36461   0.37108   0.38775   0.39833   0.41356
  Beta virt. eigenvalues --    0.42994   0.44483   0.46334   0.47444   0.48705
  Beta virt. eigenvalues --    0.49273   0.49805   0.52032   0.53546   0.54807
  Beta virt. eigenvalues --    0.56658   0.57494   0.59438   0.59775   0.61816
  Beta virt. eigenvalues --    0.65680   0.67413   0.69319   0.72173   0.74220
  Beta virt. eigenvalues --    0.81009   0.84320   0.85910   0.87318   0.90313
  Beta virt. eigenvalues --    0.90975   0.95955   0.99635   1.06491   1.10094
  Beta virt. eigenvalues --    1.14383   1.16317   1.17179   1.17738   1.20774
  Beta virt. eigenvalues --    1.23133   1.28998   1.31052   1.33414   1.34017
  Beta virt. eigenvalues --    1.37815   1.40685   1.43272   1.47179   1.48189
  Beta virt. eigenvalues --    1.51089   1.54452   1.55666   1.58344   1.61008
  Beta virt. eigenvalues --    1.61503   1.68644   1.72462   1.74038   1.75618
  Beta virt. eigenvalues --    1.77559   1.83184   1.84775   1.90255   1.91068
  Beta virt. eigenvalues --    1.96162   1.99872   2.00837   2.03970   2.04481
  Beta virt. eigenvalues --    2.09453   2.12462   2.14576   2.14965   2.17131
  Beta virt. eigenvalues --    2.17832   2.20304   2.27856   2.30837   2.32766
  Beta virt. eigenvalues --    2.34048   2.35986   2.44524   2.51536   2.52816
  Beta virt. eigenvalues --    2.64131   2.64958   2.66308   2.68243   2.70317
  Beta virt. eigenvalues --    2.74371   2.78643   2.79865   2.83633   2.84962
  Beta virt. eigenvalues --    2.86081   2.91481   2.98567   3.00714   3.01192
  Beta virt. eigenvalues --    3.02309   3.06183   3.09739   3.13215   3.19387
  Beta virt. eigenvalues --    3.21433   3.26842   3.33302   3.41167   3.45081
  Beta virt. eigenvalues --    3.52018   3.53490   3.54225   3.61789   3.62990
  Beta virt. eigenvalues --    3.64641   3.66558   3.66689   3.68777   3.70655
  Beta virt. eigenvalues --    3.73381   3.80594   3.98966   4.00165   4.03657
  Beta virt. eigenvalues --    4.13766   4.15700   4.15747   4.21634   4.22470
  Beta virt. eigenvalues --    4.26965   4.32588   4.40915   4.42257   4.43329
  Beta virt. eigenvalues --    4.50027   4.55615   4.56537   4.57886   4.58212
  Beta virt. eigenvalues --    4.59529   4.60960   4.64481   4.73475   4.74595
  Beta virt. eigenvalues --    4.76016   4.77385   4.80795   5.00562   5.00589
  Beta virt. eigenvalues --    5.03516   5.05220   5.07132   5.07287   5.07899
  Beta virt. eigenvalues --    5.08644   5.11545   5.21651   5.22982   5.26067
  Beta virt. eigenvalues --    5.27724   5.38783   5.42233   5.48748   5.65037
  Beta virt. eigenvalues --    5.69346   5.70463   5.74532   5.91872   6.07190
  Beta virt. eigenvalues --    6.27216   6.34915   6.35908   6.36444   6.41571
  Beta virt. eigenvalues --    6.42085   6.61327   6.66758   6.95615   7.11034
  Beta virt. eigenvalues --    7.21140   7.47751  22.84226  23.43026  31.33844
  Beta virt. eigenvalues --   32.15341  32.16527  32.19500  43.96727
          Condensed to atoms (all electrons):
               1          2          3          4          5          6
     1  N    6.256414   0.658164  -0.003629   0.001047  -0.000055  -0.005144
     2  C    0.658164   4.851488  -0.001558  -0.000511   0.011004  -0.037399
     3  N   -0.003629  -0.001558   6.306118   0.679139  -0.000012  -0.000214
     4  N    0.001047  -0.000511   0.679139   6.332172   0.000018   0.000188
     5  O   -0.000055   0.011004  -0.000012   0.000018   8.118032   0.230319
     6  N   -0.005144  -0.037399  -0.000214   0.000188   0.230319   6.473317
     7  C   -0.046375   0.510639   0.004362  -0.000874  -0.086174   0.300426
     8  H    0.364634  -0.053933   0.003671   0.000419   0.000019  -0.000201
     9  H   -0.003905  -0.035718  -0.000036   0.000035   0.013396  -0.019990
               7          8          9
     1  N   -0.046375   0.364634  -0.003905
     2  C    0.510639  -0.053933  -0.035718
     3  N    0.004362   0.003671  -0.000036
     4  N   -0.000874   0.000419   0.000035
     5  O   -0.086174   0.000019   0.013396
     6  N    0.300426  -0.000201  -0.019990
     7  C    5.019909  -0.004946   0.403747
     8  H   -0.004946   0.397061  -0.000225
     9  H    0.403747  -0.000225   0.484835
          Atomic-Atomic Spin Densities.
               1          2          3          4          5          6
     1  N   -0.000000   0.000000   0.000000   0.000000   0.000000  -0.000000
     2  C    0.000000   0.000000   0.000000   0.000000   0.000000  -0.000000
     3  N    0.000000   0.000000   0.000000   0.000000  -0.000000   0.000000
     4  N    0.000000   0.000000   0.000000  -0.000000  -0.000000   0.000000
     5  O    0.000000   0.000000  -0.000000  -0.000000   0.000000  -0.000000
     6  N   -0.000000  -0.000000   0.000000   0.000000  -0.000000   0.000000
     7  C    0.000000  -0.000000  -0.000000  -0.000000   0.000000  -0.000000
     8  H   -0.000000  -0.000000   0.000000  -0.000000   0.000000  -0.000000
     9  H   -0.000000  -0.000000  -0.000000  -0.000000   0.000000  -0.000000
               7          8          9
     1  N    0.000000  -0.000000  -0.000000
     2  C   -0.000000  -0.000000  -0.000000
     3  N   -0.000000   0.000000  -0.000000
     4  N   -0.000000  -0.000000  -0.000000
     5  O    0.000000   0.000000   0.000000
     6  N   -0.000000  -0.000000  -0.000000
     7  C    0.000000   0.000000   0.000000
     8  H    0.000000  -0.000000   0.000000
     9  H    0.000000   0.000000   0.000000
 Mulliken charges and spin densities:
               1          2
     1  N   -0.221151  -0.000000
     2  C    0.097824  -0.000000
     3  N    0.012158   0.000000
     4  N   -0.011632  -0.000000
     5  O   -0.286546   0.000000
     6  N    0.058697  -0.000000
     7  C   -0.100713   0.000000
     8  H    0.293501  -0.000000
     9  H    0.157861   0.000000
 Sum of Mulliken charges =  -0.00000  -0.00000
 Mulliken charges and spin densities with hydrogens summed into heavy atoms:
               1          2
     1  N    0.072351  -0.000000
     2  C    0.097824  -0.000000
     3  N    0.012158   0.000000
     4  N   -0.011632  -0.000000
     5  O   -0.286546   0.000000
     6  N    0.058697  -0.000000
     7  C    0.057148   0.000000
 Electronic spatial extent (au):  <R**2>=           1044.2362
 Charge=             -0.0000 electrons
 Dipole moment (field-independent basis, Debye):
    X=             -3.2548    Y=              2.2209    Z=              1.5895  Tot=              4.2488
 Quadrupole moment (field-independent basis, Debye-Ang):
   XX=            -39.6285   YY=            -42.6576   ZZ=            -38.1981
   XY=              1.7670   XZ=              2.2639   YZ=              0.7544
 Traceless Quadrupole moment (field-independent basis, Debye-Ang):
   XX=              0.5329   YY=             -2.4962   ZZ=              1.9633
   XY=              1.7670   XZ=              2.2639   YZ=              0.7544
 Octapole moment (field-independent basis, Debye-Ang**2):
  XXX=            -21.6166  YYY=             -7.8143  ZZZ=              3.2332  XYY=            -10.1098
  XXY=             14.5563  XXZ=              1.4464  XZZ=             -0.0358  YZZ=             -1.5498
  YYZ=              2.9801  XYZ=              0.4121
 Hexadecapole moment (field-independent basis, Debye-Ang**3):
 XXXX=           -835.3408 YYYY=           -447.8568 ZZZZ=            -61.0119 XXXY=              8.1653
 XXXZ=              2.0563 YYYX=            -19.9548 YYYZ=              5.8153 ZZZX=              5.1048
 ZZZY=              1.3031 XXYY=           -217.8709 XXZZ=           -143.4737 YYZZ=            -80.5980
 XXYZ=             -1.2578 YYXZ=              2.1313 ZZXY=              0.7902
 N-N= 2.296088937755D+02 E-N=-1.328899377998D+03  KE= 3.701217526628D+02
                          Isotropic Fermi Contact Couplings
        Atom                 a.u.       MegaHertz       Gauss      10(-4) cm-1
     1  N(14)              0.00000       0.00000       0.00000       0.00000
     2  C(13)              0.00000       0.00000       0.00000       0.00000
     3  N(14)              0.00000       0.00000       0.00000       0.00000
     4  N(14)              0.00000       0.00000       0.00000       0.00000
     5  O(17)              0.00000      -0.00000      -0.00000      -0.00000
     6  N(14)              0.00000       0.00000       0.00000       0.00000
     7  C(13)              0.00000       0.00000       0.00000       0.00000
     8  H(1)              -0.00000      -0.00000      -0.00000      -0.00000
     9  H(1)               0.00000       0.00000       0.00000       0.00000
 --------------------------------------------------------
       Center         ----  Spin Dipole Couplings  ----
                      3XX-RR        3YY-RR        3ZZ-RR
 --------------------------------------------------------
     1   Atom       -0.000000      0.000000     -0.000000
     2   Atom       -0.000000      0.000000      0.000000
     3   Atom        0.000000     -0.000000      0.000000
     4   Atom       -0.000000      0.000000     -0.000000
     5   Atom       -0.000000      0.000000     -0.000000
     6   Atom        0.000000      0.000000     -0.000000
     7   Atom        0.000000     -0.000000     -0.000000
     8   Atom        0.000000     -0.000000      0.000000
     9   Atom        0.000000     -0.000000      0.000000
 --------------------------------------------------------
                        XY            XZ            YZ
 --------------------------------------------------------
     1   Atom        0.000000     -0.000000     -0.000000
     2   Atom        0.000000     -0.000000      0.000000
     3   Atom       -0.000000      0.000000      0.000000
     4   Atom        0.000000      0.000000     -0.000000
     5   Atom       -0.000000      0.000000      0.000000
     6   Atom       -0.000000      0.000000     -0.000000
     7   Atom       -0.000000      0.000000     -0.000000
     8   Atom        0.000000      0.000000      0.000000
     9   Atom       -0.000000      0.000000     -0.000000
 --------------------------------------------------------


 ---------------------------------------------------------------------------------
              Anisotropic Spin Dipole Couplings in Principal Axis System
 ---------------------------------------------------------------------------------

       Atom             a.u.   MegaHertz   Gauss  10(-4) cm-1        Axes

              Baa    -0.0000    -0.000    -0.000    -0.000  0.8086 -0.5306  0.2545
     1 N(14)  Bbb    -0.0000    -0.000    -0.000    -0.000 -0.0691  0.3438  0.9365
              Bcc     0.0000     0.000     0.000     0.000  0.5843  0.7748 -0.2413
 
              Baa    -0.0000    -0.000    -0.000    -0.000  0.7901 -0.4978  0.3577
     2 C(13)  Bbb     0.0000     0.000     0.000     0.000  0.1850  0.7500  0.6350
              Bcc     0.0000     0.000     0.000     0.000 -0.5844 -0.4355  0.6847
 
              Baa    -0.0000    -0.000    -0.000    -0.000  0.2258  0.9741 -0.0084
     3 N(14)  Bbb     0.0000     0.000     0.000     0.000 -0.5339  0.1310  0.8353
              Bcc     0.0000     0.000     0.000     0.000  0.8148 -0.1842  0.5497
 
              Baa    -0.0000    -0.000    -0.000    -0.000  0.8310 -0.1004 -0.5472
     4 N(14)  Bbb    -0.0000    -0.000    -0.000    -0.000  0.5441 -0.0580  0.8370
              Bcc     0.0000     0.000     0.000     0.000  0.1157  0.9933 -0.0064
 
              Baa    -0.0000     0.000     0.000     0.000  0.6942  0.2605 -0.6710
     5 O(17)  Bbb    -0.0000     0.000     0.000     0.000  0.7097 -0.0924  0.6984
              Bcc     0.0000    -0.000    -0.000    -0.000 -0.1200  0.9610  0.2490
 
              Baa    -0.0000    -0.000    -0.000    -0.000 -0.0219  0.1245  0.9920
     6 N(14)  Bbb     0.0000     0.000     0.000     0.000  0.9335  0.3578 -0.0243
              Bcc     0.0000     0.000     0.000     0.000 -0.3580  0.9255 -0.1241
 
              Baa    -0.0000    -0.000    -0.000    -0.000 -0.5588 -0.5132  0.6514
     7 C(13)  Bbb    -0.0000    -0.000    -0.000    -0.000  0.2261  0.6615  0.7151
              Bcc     0.0000     0.000     0.000     0.000  0.7979 -0.5469  0.2536
 
              Baa    -0.0000    -0.000    -0.000    -0.000 -0.1342  0.9311 -0.3392
     8 H(1)   Bbb     0.0000     0.000     0.000     0.000 -0.2662  0.2959  0.9174
              Bcc     0.0000     0.000     0.000     0.000  0.9545  0.2134  0.2081
 
              Baa    -0.0000    -0.000    -0.000    -0.000  0.7074  0.5611 -0.4299
     9 H(1)   Bbb    -0.0000    -0.000    -0.000    -0.000 -0.1183  0.6936  0.7106
              Bcc     0.0000     0.000     0.000     0.000  0.6969 -0.4517  0.5570
 

 ---------------------------------------------------------------------------------



 In the race for quality, there is no finish line.
                               -- David T. Kearns
 Error termination request processed by link 9999.
 Error termination via Lnk1e in /software/kemi/g16/avx2/g16/l9999.exe at Thu Jun 24 08:12:56 2021.
 Job cpu time:       0 days 13 hours 48 minutes 50.4 seconds.
 Elapsed time:       0 days  3 hours 29 minutes 57.9 seconds.
 File lengths (MBytes):  RWF=     63 Int=      0 D2E=      0 Chk=      6 Scr=      1
