 Entering Gaussian System, Link 0=/software/kemi/g16/avx2/g16/g16
 Initial command:
 /software/kemi/g16/avx2/g16/l1.exe "/scratch/23935644/Gau-31852.inp" -scrdir="/scratch/23935644/"
 Entering Link 1 = /software/kemi/g16/avx2/g16/l1.exe PID=     31853.
  
 Copyright (c) 1988,1990,1992,1993,1995,1998,2003,2009,2016,
            Gaussian, Inc.  All Rights Reserved.
  
 This is part of the Gaussian(R) 16 program.  It is based on
 the Gaussian(R) 09 system (copyright 2009, Gaussian, Inc.),
 the Gaussian(R) 03 system (copyright 2003, Gaussian, Inc.),
 the Gaussian(R) 98 system (copyright 1998, Gaussian, Inc.),
 the Gaussian(R) 94 system (copyright 1995, Gaussian, Inc.),
 the Gaussian 92(TM) system (copyright 1992, Gaussian, Inc.),
 the Gaussian 90(TM) system (copyright 1990, Gaussian, Inc.),
 the Gaussian 88(TM) system (copyright 1988, Gaussian, Inc.),
 the Gaussian 86(TM) system (copyright 1986, Carnegie Mellon
 University), and the Gaussian 82(TM) system (copyright 1983,
 Carnegie Mellon University). Gaussian is a federally registered
 trademark of Gaussian, Inc.
  
 This software contains proprietary and confidential information,
 including trade secrets, belonging to Gaussian, Inc.
  
 This software is provided under written license and may be
 used, copied, transmitted, or stored only in accord with that
 written license.
  
 The following legend is applicable only to US Government
 contracts under FAR:
  
                    RESTRICTED RIGHTS LEGEND
  
 Use, reproduction and disclosure by the US Government is
 subject to restrictions as set forth in subparagraphs (a)
 and (c) of the Commercial Computer Software - Restricted
 Rights clause in FAR 52.227-19.
  
 Gaussian, Inc.
 340 Quinnipiac St., Bldg. 40, Wallingford CT 06492
  
  
 ---------------------------------------------------------------
 Warning -- This program may not be used in any manner that
 competes with the business of Gaussian, Inc. or will provide
 assistance to any competitor of Gaussian, Inc.  The licensee
 of this program is prohibited from giving any competitor of
 Gaussian, Inc. access to this program.  By using this program,
 the user acknowledges that Gaussian, Inc. is engaged in the
 business of creating and licensing software in the field of
 computational chemistry and represents and warrants to the
 licensee that it is not a competitor of Gaussian, Inc. and that
 it will not use this program in any manner prohibited above.
 ---------------------------------------------------------------
  

 Cite this work as:
 Gaussian 16, Revision A.03,
 M. J. Frisch, G. W. Trucks, H. B. Schlegel, G. E. Scuseria, 
 M. A. Robb, J. R. Cheeseman, G. Scalmani, V. Barone, 
 G. A. Petersson, H. Nakatsuji, X. Li, M. Caricato, A. V. Marenich, 
 J. Bloino, B. G. Janesko, R. Gomperts, B. Mennucci, H. P. Hratchian, 
 J. V. Ortiz, A. F. Izmaylov, J. L. Sonnenberg, D. Williams-Young, 
 F. Ding, F. Lipparini, F. Egidi, J. Goings, B. Peng, A. Petrone, 
 T. Henderson, D. Ranasinghe, V. G. Zakrzewski, J. Gao, N. Rega, 
 G. Zheng, W. Liang, M. Hada, M. Ehara, K. Toyota, R. Fukuda, 
 J. Hasegawa, M. Ishida, T. Nakajima, Y. Honda, O. Kitao, H. Nakai, 
 T. Vreven, K. Throssell, J. A. Montgomery, Jr., J. E. Peralta, 
 F. Ogliaro, M. J. Bearpark, J. J. Heyd, E. N. Brothers, K. N. Kudin, 
 V. N. Staroverov, T. A. Keith, R. Kobayashi, J. Normand, 
 K. Raghavachari, A. P. Rendell, J. C. Burant, S. S. Iyengar, 
 J. Tomasi, M. Cossi, J. M. Millam, M. Klene, C. Adamo, R. Cammi, 
 J. W. Ochterski, R. L. Martin, K. Morokuma, O. Farkas, 
 J. B. Foresman, and D. J. Fox, Gaussian, Inc., Wallingford CT, 2016.
 
 ******************************************
 Gaussian 16:  ES64L-G16RevA.03 25-Dec-2016
                23-Jun-2021 
 ******************************************
 %nprocshared=4
 Will use up to    4 processors via shared memory.
 %mem=8GB
 -----------------------------------------------------------------
 #irc=(forward, calcfc, maxpoint=100, stepsize=5) UwB97XD/Def2TZVP
 -----------------------------------------------------------------
 1/10=4,18=10,22=1,26=3,38=1,39=5,42=100,44=3,172=1/1,23;
 2/12=2,17=6,18=5,29=1,40=1/2;
 3/5=44,7=101,11=2,25=1,30=1,71=2,74=-58,116=2,140=1/1,2,3;
 4//1;
 5/5=2,38=5/2;
 8/6=4,10=90,11=11/1;
 11/6=1,8=1,9=11,15=111,16=1/1,2,10;
 10/6=1,13=1/2;
 6/7=2,8=2,9=2,10=2,28=1/1;
 7/10=1,18=20,25=1/1,2,3,16;
 1/10=4,18=10,22=1,26=3,39=5,42=100,44=3/23(2);
 2/29=1/2;
 99/5=20/99;
 2/29=1/2;
 3/5=44,7=101,11=2,25=1,30=1,71=2,74=-58,116=2,140=1/1,2,3;
 4/5=5,16=3,69=1/1;
 5/5=2,38=5/2;
 8/6=4,10=90,11=11/1;
 11/6=1,8=1,9=11,15=111,16=1/1,2,10;
 10/6=1,13=1/2;
 7/10=1,18=20,25=1/1,2,3,16;
 1/18=10,22=1,26=3,39=5,42=100,44=3/23(-8);
 2/29=1/2;
 6/7=2,8=2,9=2,10=2,19=2,28=1/1;
 99/5=20,9=1/99;
 ---------------
 something title
 ---------------
 Symbolic Z-matrix:
 Charge =  0 Multiplicity = 1
 N                    -0.43518   2.31935  -0.03234 
 C                    -0.99198   1.29834   0.01265 
 N                     2.54041   0.18444   0.01489 
 N                     2.99117  -0.80533   0.01436 
 O                    -1.42865  -2.06909  -0.01431 
 N                    -0.83375  -1.0095   -0.05995 
 C                    -1.63173   0.11482   0.06062 
 H                     0.03941   3.18961  -0.07069 
 H                    -2.70649   0.06141   0.18682 
 
 IRC-IRC-IRC-IRC-IRC-IRC-IRC-IRC-IRC-IRC-IRC-IRC-IRC-IRC-IRC-IRC-IRC-IRC
 ------------------------------------------------------------------------
 INPUT DATA FOR L123
 ------------------------------------------------------------------------
 GENERAL PARAMETERS:
 Rxn path following direction = Forward
 Maximum points per path      = 100
 Step size                    =   0.050 bohr
 Integration scheme           = HPC                                 
    Redo corrector integration= Yes                                 
    DWI Weight Power          =  2
    DWI will use Hessian update vectors when possible.
    Max correction cycles     =  20
 Initial Hessian              = CalcFC
 Hessian evaluation           = All updating
 Hessian updating method      = Bofill                              
 ------------------------------------------------------------------------
 IRC-IRC-IRC-IRC-IRC-IRC-IRC-IRC-IRC-IRC-IRC-IRC-IRC-IRC-IRC-IRC-IRC-IRC
                          Input orientation:                          
 ---------------------------------------------------------------------
 Center     Atomic      Atomic             Coordinates (Angstroms)
 Number     Number       Type             X           Y           Z
 ---------------------------------------------------------------------
      1          7           0       -0.435180    2.319350   -0.032340
      2          6           0       -0.991980    1.298340    0.012650
      3          7           0        2.540410    0.184440    0.014890
      4          7           0        2.991170   -0.805330    0.014360
      5          8           0       -1.428650   -2.069090   -0.014310
      6          7           0       -0.833750   -1.009500   -0.059950
      7          6           0       -1.631730    0.114820    0.060620
      8          1           0        0.039410    3.189610   -0.070690
      9          1           0       -2.706490    0.061410    0.186820
 ---------------------------------------------------------------------
                    Distance matrix (angstroms):
                    1          2          3          4          5
     1  N    0.000000
     2  C    1.163835   0.000000
     3  N    3.662541   3.703857   0.000000
     4  N    4.637422   4.504544   1.087580   0.000000
     5  O    4.499524   3.395731   4.564284   4.597034   0.000000
     6  N    3.352740   2.314397   3.579951   3.831086   1.216026
     7  C    2.510045   1.346217   4.172971   4.713812   2.194611
     8  H    0.991997   2.155832   3.910674   4.967863   5.460065
     9  H    3.210167   2.121291   5.251158   5.765788   2.492460
                    6          7          8          9
     6  N    0.000000
     7  C    1.383981   0.000000
     8  H    4.288945   3.502040   0.000000
     9  H    2.171382   1.083461   4.170361   0.000000
 Symmetry turned off by external request.
 Stoichiometry    C2H2N4O
 Framework group  C1[X(C2H2N4O)]
 Deg. of freedom    21
 Full point group                 C1      NOp   1
 Rotational constants (GHZ):           2.5481675           1.6202147           0.9910698
 Standard basis: def2TZVP (5D, 7F)
   229 basis functions,   373 primitive gaussians,   264 cartesian basis functions
    25 alpha electrons       25 beta electrons
       nuclear repulsion energy       229.8523430398 Hartrees.
 NAtoms=    9 NActive=    9 NUniq=    9 SFac= 1.00D+00 NAtFMM=   60 NAOKFM=F Big=F
 Integral buffers will be    131072 words long.
 Raffenetti 2 integral format.
 Two-electron integral symmetry is turned off.
 Nuclear repulsion after empirical dispersion term =      229.8501447657 Hartrees.
 One-electron integrals computed using PRISM.
   1 Symmetry operations used in ECPInt.
 ECPInt:  NShTT=    3655 NPrTT=   11788 LenC2=    3469 LenP2D=    8577.
 LDataN:  DoStor=T MaxTD1= 6 Len=  172
 NBasis=   229 RedAO= T EigKep=  7.20D-05  NBF=   229
 NBsUse=   229 1.00D-06 EigRej= -1.00D+00 NBFU=   229
 ExpMin= 9.52D-02 ExpMax= 2.70D+04 ExpMxC= 9.22D+02 IAcc=3 IRadAn=         5 AccDes= 0.00D+00
 Harris functional with IExCor= 4639 and IRadAn=       5 diagonalized for initial guess.
 HarFok:  IExCor= 4639 AccDes= 0.00D+00 IRadAn=         5 IDoV= 1 UseB2=F ITyADJ=14
 ICtDFT=  3500011 ScaDFX=  1.000000  1.000000  1.000000  1.000000
 FoFCou: FMM=F IPFlag=           0 FMFlag=      100000 FMFlg1=           0
         NFxFlg=           0 DoJE=T BraDBF=F KetDBF=T FulRan=T
         wScrn=  0.000000 ICntrl=       500 IOpCl=  0 I1Cent=   200000004 NGrid=           0
         NMat0=    1 NMatS0=      1 NMatT0=    0 NMatD0=    1 NMtDS0=    0 NMtDT0=    0
 Symmetry not used in FoFCou.
 Initial guess <Sx>= 0.0000 <Sy>= 0.0000 <Sz>= 0.0000 <S**2>= 0.0000 S= 0.0000
 Requested convergence on RMS density matrix=1.00D-08 within 128 cycles.
 Requested convergence on MAX density matrix=1.00D-06.
 Requested convergence on             energy=1.00D-06.
 No special actions if energy rises.
 Integral accuracy reduced to 1.0D-05 until final iterations.
 Initial convergence to 1.0D-05 achieved.  Increase integral accuracy.
 SCF Done:  E(UwB97XD) =  -371.539787592     A.U. after   17 cycles
            NFock= 17  Conv=0.97D-08     -V/T= 2.0039
 <Sx>= 0.0000 <Sy>= 0.0000 <Sz>= 0.0000 <S**2>=-0.0000 S=-0.0000
 <L.S>=  0.00000000000    
 Annihilation of the first spin contaminant:
 S**2 before annihilation    -0.0000,   after     0.0000
 DoSCS=F DFT=T ScalE2(SS,OS)=  1.000000  1.000000
 Range of M.O.s used for correlation:     1   229
 NBasis=   229 NAE=    25 NBE=    25 NFC=     0 NFV=     0
 NROrb=    229 NOA=    25 NOB=    25 NVA=   204 NVB=   204

 **** Warning!!: The largest alpha MO coefficient is  0.27156438D+02


 **** Warning!!: The largest beta MO coefficient is  0.27156438D+02

   1 Symmetry operations used in ECPInt.
 ECPInt:  NShTT=    3655 NPrTT=   11788 LenC2=    3469 LenP2D=    8577.
 LDataN:  DoStor=T MaxTD1= 7 Len=  274
 Symmetrizing basis deriv contribution to polar:
 IMax=3 JMax=2 DiffMx= 0.00D+00
 G2DrvN: will do    10 centers at a time, making    1 passes.
 Calling FoFCou, ICntrl=  3107 FMM=F I1Cent=   0 AccDes= 0.00D+00.
 End of G2Drv F.D. properties file   721 does not exist.
 End of G2Drv F.D. properties file   722 does not exist.
 End of G2Drv F.D. properties file   788 does not exist.
          IDoAtm=111111111
          Differentiating once with respect to nuclear coordinates.
 CalDSu exits because no D1Ps are significant.
          There are    30 degrees of freedom in the 1st order CPHF.  IDoFFX=6 NUNeed=     0.
     24 vectors produced by pass  0 Test12= 3.40D-14 3.33D-09 XBig12= 1.53D-01 1.86D-01.
 AX will form    24 AO Fock derivatives at one time.
     24 vectors produced by pass  1 Test12= 3.40D-14 3.33D-09 XBig12= 1.35D-02 3.50D-02.
     24 vectors produced by pass  2 Test12= 3.40D-14 3.33D-09 XBig12= 4.96D-04 4.39D-03.
     24 vectors produced by pass  3 Test12= 3.40D-14 3.33D-09 XBig12= 7.66D-06 4.24D-04.
     24 vectors produced by pass  4 Test12= 3.40D-14 3.33D-09 XBig12= 1.09D-07 4.08D-05.
     24 vectors produced by pass  5 Test12= 3.40D-14 3.33D-09 XBig12= 1.12D-09 4.83D-06.
     24 vectors produced by pass  6 Test12= 3.40D-14 3.33D-09 XBig12= 8.41D-12 4.00D-07.
     18 vectors produced by pass  7 Test12= 3.40D-14 3.33D-09 XBig12= 5.10D-14 3.19D-08.
 InvSVY:  IOpt=1 It=  1 EMax= 1.55D-15
 Solved reduced A of dimension   186 with    24 vectors.
 End of Minotr F.D. properties file   721 does not exist.
 End of Minotr F.D. properties file   722 does not exist.
 End of Minotr F.D. properties file   788 does not exist.

 **********************************************************************

            Population analysis using the SCF density.

 **********************************************************************

 Alpha  occ. eigenvalues --  -19.25446 -14.52897 -14.52693 -14.52378 -14.51505
 Alpha  occ. eigenvalues --  -10.42184 -10.31663  -1.22623  -1.22149  -1.10129
 Alpha  occ. eigenvalues --   -0.92810  -0.79858  -0.73625  -0.63960  -0.61713
 Alpha  occ. eigenvalues --   -0.57700  -0.55198  -0.55101  -0.54712  -0.51788
 Alpha  occ. eigenvalues --   -0.50565  -0.50279  -0.47288  -0.32341  -0.28764
 Alpha virt. eigenvalues --    0.01392   0.02310   0.06356   0.06411   0.08668
 Alpha virt. eigenvalues --    0.13773   0.13910   0.17730   0.23075   0.27146
 Alpha virt. eigenvalues --    0.27485   0.28989   0.31961   0.32280   0.34999
 Alpha virt. eigenvalues --    0.36050   0.38423   0.38451   0.38997   0.42379
 Alpha virt. eigenvalues --    0.43626   0.47368   0.47936   0.48976   0.49386
 Alpha virt. eigenvalues --    0.50341   0.51112   0.52852   0.53486   0.55644
 Alpha virt. eigenvalues --    0.58762   0.59541   0.62519   0.62576   0.65917
 Alpha virt. eigenvalues --    0.67362   0.68140   0.71549   0.74134   0.77463
 Alpha virt. eigenvalues --    0.81075   0.83471   0.88103   0.89403   0.91715
 Alpha virt. eigenvalues --    0.92444   0.94365   1.00522   1.06586   1.09876
 Alpha virt. eigenvalues --    1.15667   1.18564   1.18819   1.19946   1.22931
 Alpha virt. eigenvalues --    1.25890   1.30473   1.31002   1.34235   1.36114
 Alpha virt. eigenvalues --    1.37174   1.42454   1.42756   1.44958   1.45635
 Alpha virt. eigenvalues --    1.48708   1.52443   1.54993   1.56265   1.59240
 Alpha virt. eigenvalues --    1.60541   1.68954   1.76117   1.77056   1.78613
 Alpha virt. eigenvalues --    1.84387   1.84648   1.89817   1.91252   1.95014
 Alpha virt. eigenvalues --    1.99072   2.01612   2.03343   2.05446   2.09915
 Alpha virt. eigenvalues --    2.10265   2.11626   2.15198   2.15722   2.18463
 Alpha virt. eigenvalues --    2.23995   2.28768   2.30356   2.33681   2.34525
 Alpha virt. eigenvalues --    2.37195   2.37944   2.46118   2.57735   2.59384
 Alpha virt. eigenvalues --    2.64826   2.65455   2.67482   2.69269   2.73136
 Alpha virt. eigenvalues --    2.74502   2.75333   2.80905   2.84524   2.85827
 Alpha virt. eigenvalues --    2.92770   2.94921   2.96095   3.00685   3.01681
 Alpha virt. eigenvalues --    3.04753   3.08357   3.11977   3.17026   3.20244
 Alpha virt. eigenvalues --    3.27283   3.33181   3.48009   3.49621   3.50366
 Alpha virt. eigenvalues --    3.55792   3.56277   3.59970   3.68349   3.68959
 Alpha virt. eigenvalues --    3.69253   3.70938   3.71815   3.72141   3.72567
 Alpha virt. eigenvalues --    3.82768   3.92009   3.96322   3.96674   4.02338
 Alpha virt. eigenvalues --    4.03515   4.12036   4.18085   4.18145   4.24366
 Alpha virt. eigenvalues --    4.24759   4.31622   4.33254   4.42670   4.44591
 Alpha virt. eigenvalues --    4.45837   4.53829   4.56405   4.57894   4.58527
 Alpha virt. eigenvalues --    4.59133   4.60530   4.62388   4.63496   4.63769
 Alpha virt. eigenvalues --    4.75725   4.81109   4.83367   5.02336   5.02949
 Alpha virt. eigenvalues --    5.03021   5.06550   5.08850   5.09282   5.10234
 Alpha virt. eigenvalues --    5.10698   5.13715   5.14495   5.19498   5.23742
 Alpha virt. eigenvalues --    5.29249   5.30166   5.43004   5.49818   5.68608
 Alpha virt. eigenvalues --    5.76047   5.76619   5.87822   5.96351   6.29113
 Alpha virt. eigenvalues --    6.37164   6.37817   6.38966   6.42534   6.44595
 Alpha virt. eigenvalues --    6.62768   6.63547   6.70700   6.97278   7.13214
 Alpha virt. eigenvalues --    7.22810   7.51999  22.89208  23.54618  31.35356
 Alpha virt. eigenvalues --   32.19006  32.21512  32.29277  44.00096
  Beta  occ. eigenvalues --  -19.25446 -14.52897 -14.52693 -14.52378 -14.51505
  Beta  occ. eigenvalues --  -10.42184 -10.31663  -1.22623  -1.22149  -1.10129
  Beta  occ. eigenvalues --   -0.92810  -0.79858  -0.73625  -0.63960  -0.61713
  Beta  occ. eigenvalues --   -0.57700  -0.55198  -0.55101  -0.54712  -0.51788
  Beta  occ. eigenvalues --   -0.50565  -0.50279  -0.47288  -0.32341  -0.28764
  Beta virt. eigenvalues --    0.01392   0.02310   0.06356   0.06411   0.08668
  Beta virt. eigenvalues --    0.13773   0.13910   0.17730   0.23075   0.27146
  Beta virt. eigenvalues --    0.27485   0.28989   0.31961   0.32280   0.34999
  Beta virt. eigenvalues --    0.36050   0.38423   0.38451   0.38997   0.42379
  Beta virt. eigenvalues --    0.43626   0.47368   0.47936   0.48976   0.49386
  Beta virt. eigenvalues --    0.50341   0.51112   0.52852   0.53486   0.55644
  Beta virt. eigenvalues --    0.58762   0.59541   0.62519   0.62576   0.65917
  Beta virt. eigenvalues --    0.67362   0.68140   0.71549   0.74134   0.77463
  Beta virt. eigenvalues --    0.81075   0.83471   0.88103   0.89403   0.91715
  Beta virt. eigenvalues --    0.92444   0.94365   1.00522   1.06586   1.09876
  Beta virt. eigenvalues --    1.15667   1.18564   1.18819   1.19946   1.22931
  Beta virt. eigenvalues --    1.25890   1.30473   1.31002   1.34235   1.36114
  Beta virt. eigenvalues --    1.37174   1.42454   1.42756   1.44958   1.45635
  Beta virt. eigenvalues --    1.48708   1.52443   1.54993   1.56265   1.59240
  Beta virt. eigenvalues --    1.60541   1.68954   1.76117   1.77056   1.78613
  Beta virt. eigenvalues --    1.84387   1.84648   1.89817   1.91252   1.95014
  Beta virt. eigenvalues --    1.99072   2.01612   2.03343   2.05446   2.09915
  Beta virt. eigenvalues --    2.10265   2.11626   2.15198   2.15722   2.18463
  Beta virt. eigenvalues --    2.23995   2.28768   2.30356   2.33681   2.34525
  Beta virt. eigenvalues --    2.37195   2.37944   2.46118   2.57735   2.59384
  Beta virt. eigenvalues --    2.64826   2.65455   2.67482   2.69269   2.73136
  Beta virt. eigenvalues --    2.74502   2.75333   2.80905   2.84524   2.85827
  Beta virt. eigenvalues --    2.92770   2.94921   2.96095   3.00685   3.01681
  Beta virt. eigenvalues --    3.04753   3.08357   3.11977   3.17026   3.20244
  Beta virt. eigenvalues --    3.27283   3.33181   3.48009   3.49621   3.50366
  Beta virt. eigenvalues --    3.55792   3.56277   3.59970   3.68349   3.68959
  Beta virt. eigenvalues --    3.69253   3.70938   3.71815   3.72141   3.72567
  Beta virt. eigenvalues --    3.82768   3.92009   3.96322   3.96674   4.02338
  Beta virt. eigenvalues --    4.03515   4.12036   4.18085   4.18145   4.24366
  Beta virt. eigenvalues --    4.24759   4.31622   4.33254   4.42670   4.44591
  Beta virt. eigenvalues --    4.45837   4.53829   4.56405   4.57894   4.58527
  Beta virt. eigenvalues --    4.59133   4.60530   4.62388   4.63496   4.63769
  Beta virt. eigenvalues --    4.75725   4.81109   4.83367   5.02336   5.02949
  Beta virt. eigenvalues --    5.03021   5.06550   5.08850   5.09282   5.10234
  Beta virt. eigenvalues --    5.10698   5.13715   5.14495   5.19498   5.23742
  Beta virt. eigenvalues --    5.29249   5.30166   5.43004   5.49818   5.68608
  Beta virt. eigenvalues --    5.76047   5.76619   5.87822   5.96351   6.29113
  Beta virt. eigenvalues --    6.37164   6.37817   6.38966   6.42534   6.44595
  Beta virt. eigenvalues --    6.62768   6.63547   6.70700   6.97278   7.13214
  Beta virt. eigenvalues --    7.22810   7.51999  22.89208  23.54618  31.35356
  Beta virt. eigenvalues --   32.19006  32.21512  32.29277  44.00096
          Condensed to atoms (all electrons):
               1          2          3          4          5          6
     1  N    6.128185   0.748122  -0.001003  -0.000099   0.000154  -0.005938
     2  C    0.748122   4.792483   0.001278  -0.000354   0.015119  -0.028675
     3  N   -0.001003   0.001278   6.329284   0.673149  -0.000218   0.002315
     4  N   -0.000099  -0.000354   0.673149   6.324899   0.000095  -0.000933
     5  O    0.000154   0.015119  -0.000218   0.000095   8.170538   0.225091
     6  N   -0.005938  -0.028675   0.002315  -0.000933   0.225091   6.460680
     7  C   -0.038751   0.399547   0.000605   0.000274  -0.098145   0.332878
     8  H    0.379168  -0.029343   0.000091  -0.000004   0.000005  -0.000190
     9  H   -0.003968  -0.029733   0.000039  -0.000002   0.017382  -0.023829
               7          8          9
     1  N   -0.038751   0.379168  -0.003968
     2  C    0.399547  -0.029343  -0.029733
     3  N    0.000605   0.000091   0.000039
     4  N    0.000274  -0.000004  -0.000002
     5  O   -0.098145   0.000005   0.017382
     6  N    0.332878  -0.000190  -0.023829
     7  C    5.134154   0.002110   0.387337
     8  H    0.002110   0.301118  -0.000100
     9  H    0.387337  -0.000100   0.511706
          Atomic-Atomic Spin Densities.
               1          2          3          4          5          6
     1  N   -0.000000   0.000000   0.000000  -0.000000   0.000000   0.000000
     2  C    0.000000  -0.000000  -0.000000  -0.000000  -0.000000  -0.000000
     3  N    0.000000  -0.000000  -0.000000   0.000000  -0.000000   0.000000
     4  N   -0.000000  -0.000000   0.000000  -0.000000   0.000000  -0.000000
     5  O    0.000000  -0.000000  -0.000000   0.000000   0.000000  -0.000000
     6  N    0.000000  -0.000000   0.000000  -0.000000  -0.000000   0.000000
     7  C   -0.000000   0.000000   0.000000  -0.000000   0.000000   0.000000
     8  H   -0.000000   0.000000   0.000000   0.000000   0.000000   0.000000
     9  H   -0.000000   0.000000   0.000000  -0.000000   0.000000   0.000000
               7          8          9
     1  N   -0.000000  -0.000000  -0.000000
     2  C    0.000000   0.000000   0.000000
     3  N    0.000000   0.000000   0.000000
     4  N   -0.000000   0.000000  -0.000000
     5  O    0.000000   0.000000   0.000000
     6  N    0.000000   0.000000   0.000000
     7  C   -0.000000  -0.000000  -0.000000
     8  H   -0.000000  -0.000000  -0.000000
     9  H   -0.000000  -0.000000  -0.000000
 Mulliken charges and spin densities:
               1          2
     1  N   -0.205870  -0.000000
     2  C    0.131555   0.000000
     3  N   -0.005541  -0.000000
     4  N    0.002974   0.000000
     5  O   -0.330022   0.000000
     6  N    0.038601   0.000000
     7  C   -0.120010  -0.000000
     8  H    0.347145  -0.000000
     9  H    0.141168  -0.000000
 Sum of Mulliken charges =  -0.00000   0.00000
 Mulliken charges and spin densities with hydrogens summed into heavy atoms:
               1          2
     1  N    0.141275  -0.000000
     2  C    0.131555   0.000000
     3  N   -0.005541  -0.000000
     4  N    0.002974   0.000000
     5  O   -0.330022   0.000000
     6  N    0.038601   0.000000
     7  C    0.021158  -0.000000
 APT charges:
               1
     1  N   -0.198444
     2  C   -0.452694
     3  N   -0.738122
     4  N    0.735779
     5  O   -0.067463
     6  N   -0.313868
     7  C   -0.496554
     8  H    0.963304
     9  H    0.568064
 Sum of APT charges =  -0.00000
 APT charges with hydrogens summed into heavy atoms:
               1
     1  N    0.764859
     2  C   -0.452694
     3  N   -0.738122
     4  N    0.735779
     5  O   -0.067463
     6  N   -0.313868
     7  C    0.071509
 Electronic spatial extent (au):  <R**2>=           1023.5907
 Charge=             -0.0000 electrons
 Dipole moment (field-independent basis, Debye):
    X=              0.3814    Y=              6.5131    Z=              0.0924  Tot=              6.5249
 Quadrupole moment (field-independent basis, Debye-Ang):
   XX=            -37.5789   YY=            -33.2381   ZZ=            -38.7733
   XY=             -2.7586   XZ=             -0.3491   YZ=             -0.4010
 Traceless Quadrupole moment (field-independent basis, Debye-Ang):
   XX=             -1.0488   YY=              3.2920   ZZ=             -2.2432
   XY=             -2.7586   XZ=             -0.3491   YZ=             -0.4010
 Octapole moment (field-independent basis, Debye-Ang**2):
  XXX=             -2.5657  YYY=             57.1808  ZZZ=             -0.3598  XYY=             10.7235
  XXY=              8.3981  XXZ=              0.8945  XZZ=              3.1726  YZZ=             -3.2247
  YYZ=             -0.9358  XYZ=             -0.4289
 Hexadecapole moment (field-independent basis, Debye-Ang**3):
 XXXX=           -739.6964 YYYY=           -356.4996 ZZZZ=            -37.1356 XXXY=              5.8519
 XXXZ=             -3.0027 YYYX=              3.4679 YYYZ=             -4.6294 ZZZX=              0.6085
 ZZZY=             -0.1137 XXYY=           -230.4592 XXZZ=           -132.5380 YYZZ=            -87.7784
 XXYZ=              0.7438 YYXZ=             -0.5061 ZZXY=              4.0022
 N-N= 2.298501447657D+02 E-N=-1.329889328545D+03  KE= 3.701057156520D+02
  Exact polarizability:   0.000   0.000   0.000   0.000   0.000   0.000
 Approx polarizability:  50.301  11.918 111.797  -0.970  -0.379  36.515
                          Isotropic Fermi Contact Couplings
        Atom                 a.u.       MegaHertz       Gauss      10(-4) cm-1
     1  N(14)             -0.00000      -0.00000      -0.00000      -0.00000
     2  C(13)              0.00000       0.00000       0.00000       0.00000
     3  N(14)             -0.00000      -0.00000      -0.00000      -0.00000
     4  N(14)             -0.00000      -0.00000      -0.00000      -0.00000
     5  O(17)              0.00000      -0.00000      -0.00000      -0.00000
     6  N(14)             -0.00000      -0.00000      -0.00000      -0.00000
     7  C(13)              0.00000       0.00000       0.00000       0.00000
     8  H(1)               0.00000       0.00000       0.00000       0.00000
     9  H(1)              -0.00000      -0.00000      -0.00000      -0.00000
 --------------------------------------------------------
       Center         ----  Spin Dipole Couplings  ----
                      3XX-RR        3YY-RR        3ZZ-RR
 --------------------------------------------------------
     1   Atom        0.000000     -0.000000      0.000000
     2   Atom       -0.000000      0.000000      0.000000
     3   Atom        0.000000     -0.000000      0.000000
     4   Atom        0.000000     -0.000000      0.000000
     5   Atom        0.000000     -0.000000      0.000000
     6   Atom        0.000000     -0.000000      0.000000
     7   Atom        0.000000     -0.000000      0.000000
     8   Atom       -0.000000      0.000000     -0.000000
     9   Atom       -0.000000     -0.000000      0.000000
 --------------------------------------------------------
                        XY            XZ            YZ
 --------------------------------------------------------
     1   Atom       -0.000000     -0.000000      0.000000
     2   Atom       -0.000000      0.000000      0.000000
     3   Atom        0.000000     -0.000000      0.000000
     4   Atom        0.000000      0.000000      0.000000
     5   Atom        0.000000     -0.000000     -0.000000
     6   Atom        0.000000     -0.000000     -0.000000
     7   Atom       -0.000000      0.000000      0.000000
     8   Atom        0.000000     -0.000000     -0.000000
     9   Atom       -0.000000      0.000000      0.000000
 --------------------------------------------------------


 ---------------------------------------------------------------------------------
              Anisotropic Spin Dipole Couplings in Principal Axis System
 ---------------------------------------------------------------------------------

       Atom             a.u.   MegaHertz   Gauss  10(-4) cm-1        Axes

              Baa    -0.0000    -0.000    -0.000    -0.000  0.3523  0.9359 -0.0048
     1 N(14)  Bbb     0.0000     0.000     0.000     0.000  0.1902 -0.0666  0.9795
              Bcc     0.0000     0.000     0.000     0.000  0.9164 -0.3460 -0.2015
 
              Baa    -0.0000    -0.000    -0.000    -0.000  0.9093  0.4052 -0.0948
     2 C(13)  Bbb     0.0000     0.000     0.000     0.000  0.0820  0.0487  0.9954
              Bcc     0.0000     0.000     0.000     0.000 -0.4079  0.9129 -0.0110
 
              Baa    -0.0000    -0.000    -0.000    -0.000 -0.0279  0.9977 -0.0616
     3 N(14)  Bbb     0.0000     0.000     0.000     0.000  0.2507  0.0667  0.9658
              Bcc     0.0000     0.000     0.000     0.000  0.9677  0.0115 -0.2519
 
              Baa    -0.0000    -0.000    -0.000    -0.000 -0.4124  0.9109 -0.0131
     4 N(14)  Bbb     0.0000     0.000     0.000     0.000  0.8961  0.4030 -0.1860
              Bcc     0.0000     0.000     0.000     0.000  0.1641  0.0884  0.9825
 
              Baa    -0.0000     0.000     0.000     0.000 -0.5065  0.8528  0.1272
     5 O(17)  Bbb     0.0000    -0.000    -0.000    -0.000  0.1604 -0.0517  0.9857
              Bcc     0.0000    -0.000    -0.000    -0.000  0.8472  0.5196 -0.1106
 
              Baa    -0.0000    -0.000    -0.000    -0.000 -0.1807  0.9828  0.0367
     6 N(14)  Bbb     0.0000     0.000     0.000     0.000  0.1108 -0.0167  0.9937
              Bcc     0.0000     0.000     0.000     0.000  0.9773  0.1837 -0.1059
 
              Baa    -0.0000    -0.000    -0.000    -0.000  0.4798  0.8763 -0.0442
     7 C(13)  Bbb     0.0000     0.000     0.000     0.000  0.8651 -0.4808 -0.1431
              Bcc     0.0000     0.000     0.000     0.000  0.1467 -0.0304  0.9887
 
              Baa    -0.0000    -0.000    -0.000    -0.000  0.2048 -0.0681  0.9764
     8 H(1)   Bbb    -0.0000    -0.000    -0.000    -0.000  0.8394 -0.5009 -0.2110
              Bcc     0.0000     0.000     0.000     0.000  0.5034  0.8628 -0.0454
 
              Baa    -0.0000    -0.000    -0.000    -0.000  0.7358  0.6751 -0.0539
     9 H(1)   Bbb     0.0000     0.000     0.000     0.000 -0.6722  0.7377  0.0630
              Bcc     0.0000     0.000     0.000     0.000  0.0823 -0.0101  0.9966
 

 ---------------------------------------------------------------------------------

   1 Symmetry operations used in ECPInt.
 ECPInt:  NShTT=    3655 NPrTT=   11788 LenC2=    3469 LenP2D=    8577.
 LDataN:  DoStor=T MaxTD1= 8 Len=  415
 Calling FoFJK, ICntrl=    100147 FMM=F ISym2X=0 I1Cent= 0 IOpClX= 1 NMat=1 NMatS=1 NMatT=0.
 -------------------------------------------------------------------
 Center     Atomic                   Forces (Hartrees/Bohr)
 Number     Number              X              Y              Z
 -------------------------------------------------------------------
      1        7          -0.001177559    0.000402372    0.000171477
      2        6           0.000145744   -0.000195809   -0.000294754
      3        7          -0.000021820    0.000013968   -0.000018585
      4        7          -0.000023108    0.000014979    0.000003788
      5        8          -0.000001775   -0.000013208   -0.000021236
      6        7          -0.000007309    0.000097003    0.000065222
      7        6           0.000010909   -0.000031254    0.000123091
      8        1           0.000766202   -0.000329262    0.000001307
      9        1           0.000308716    0.000041211   -0.000030310
 -------------------------------------------------------------------
 Cartesian Forces:  Max     0.001177559 RMS     0.000307330
 IRC-IRC-IRC-IRC-IRC-IRC-IRC-IRC-IRC-IRC-IRC-IRC-IRC-IRC-IRC-IRC-IRC-IRC
          ******** Start new reaction path calculation ********
 Supplied step size of   0.0500 bohr.
    Integration on MW PES will use step size of   0.0564 sqrt(amu)*bohr.
 Point Number:   0          Path Number:   1
 Calculating another point on the path.
 IRC-IRC-IRC-IRC-IRC-IRC-IRC-IRC-IRC-IRC-IRC-IRC-IRC-IRC-IRC-IRC-IRC-IRC
                          Input orientation:                          
 ---------------------------------------------------------------------
 Center     Atomic      Atomic             Coordinates (Angstroms)
 Number     Number       Type             X           Y           Z
 ---------------------------------------------------------------------
      1          7           0       -0.461980    2.352058   -0.027754
      2          6           0       -1.019386    1.331156    0.012142
      3          7           0        2.513209    0.217217    0.016040
      4          7           0        2.963967   -0.772554    0.015564
      5          8           0       -1.455849   -2.036313   -0.013097
      6          7           0       -0.860960   -0.976721   -0.058828
      7          6           0       -1.658947    0.147599    0.061695
      8          1           0        0.009111    3.222936   -0.095503
      9          1           0       -2.733685    0.094184    0.188086
 ---------------------------------------------------------------------
                    Distance matrix (angstroms):
                    1          2          3          4          5
     1  N    0.000000
     2  C    1.163844   0.000000
     3  N    3.662132   3.704065   0.000000
     4  N    4.637045   4.504743   1.087580   0.000000
     5  O    4.499532   3.395731   4.564282   4.597030   0.000000
     6  N    3.352748   2.314397   3.579959   3.831095   1.216026
     7  C    2.510054   1.346218   4.172986   4.713825   2.194610
     8  H    0.992445   2.155974   3.913732   4.970659   5.460092
     9  H    3.210175   2.121291   5.251155   5.765781   2.492460
                    6          7          8          9
     6  N    0.000000
     7  C    1.383981   0.000000
     8  H    4.288997   3.502118   0.000000
     9  H    2.171383   1.083461   4.170424   0.000000
 Symmetry turned off by external request.
 Stoichiometry    C2H2N4O
 Framework group  C1[X(C2H2N4O)]
 Deg. of freedom    21
 Full point group                 C1      NOp   1
 Rotational constants (GHZ):           2.5481519           1.6202082           0.9910687
 Standard basis: def2TZVP (5D, 7F)
   229 basis functions,   373 primitive gaussians,   264 cartesian basis functions
    25 alpha electrons       25 beta electrons
       nuclear repulsion energy       229.8497715987 Hartrees.
 NAtoms=    9 NActive=    9 NUniq=    9 SFac= 1.00D+00 NAtFMM=   60 NAOKFM=F Big=F
 Integral buffers will be    131072 words long.
 Raffenetti 2 integral format.
 Two-electron integral symmetry is turned off.
 Nuclear repulsion after empirical dispersion term =      229.8475735131 Hartrees.
 One-electron integrals computed using PRISM.
   1 Symmetry operations used in ECPInt.
 ECPInt:  NShTT=    3655 NPrTT=   11788 LenC2=    3469 LenP2D=    8577.
 LDataN:  DoStor=T MaxTD1= 6 Len=  172
 NBasis=   229 RedAO= T EigKep=  7.21D-05  NBF=   229
 NBsUse=   229 1.00D-06 EigRej= -1.00D+00 NBFU=   229
 Initial guess from the checkpoint file:  "/scratch/23935644/Gau-31853.chk"
 B after Tr=    -0.051466    0.061951    0.001738
         Rot=    1.000000    0.000197   -0.000002   -0.000009 Ang=   0.02 deg.
 Initial guess <Sx>= 0.0000 <Sy>= 0.0000 <Sz>= 0.0000 <S**2>=-0.0000 S=-0.0000
 ExpMin= 9.52D-02 ExpMax= 2.70D+04 ExpMxC= 9.22D+02 IAcc=2 IRadAn=         4 AccDes= 0.00D+00
 Harris functional with IExCor= 4639 and IRadAn=       4 diagonalized for initial guess.
 HarFok:  IExCor= 4639 AccDes= 0.00D+00 IRadAn=         4 IDoV= 1 UseB2=F ITyADJ=14
 ICtDFT=  3500011 ScaDFX=  1.000000  1.000000  1.000000  1.000000
 FoFCou: FMM=F IPFlag=           0 FMFlag=      100000 FMFlg1=           0
         NFxFlg=           0 DoJE=T BraDBF=F KetDBF=T FulRan=T
         wScrn=  0.000000 ICntrl=       500 IOpCl=  0 I1Cent=   200000004 NGrid=           0
         NMat0=    1 NMatS0=      1 NMatT0=    0 NMatD0=    1 NMtDS0=    0 NMtDT0=    0
 Symmetry not used in FoFCou.
 Requested convergence on RMS density matrix=1.00D-08 within 128 cycles.
 Requested convergence on MAX density matrix=1.00D-06.
 Requested convergence on             energy=1.00D-06.
 No special actions if energy rises.
 Integral accuracy reduced to 1.0D-05 until final iterations.
 Initial convergence to 1.0D-05 achieved.  Increase integral accuracy.
 SCF Done:  E(UwB97XD) =  -371.539809727     A.U. after   12 cycles
            NFock= 12  Conv=0.49D-08     -V/T= 2.0039
 <Sx>= 0.0000 <Sy>= 0.0000 <Sz>= 0.0000 <S**2>=-0.0000 S=-0.0000
 <L.S>=  0.00000000000    
 Annihilation of the first spin contaminant:
 S**2 before annihilation    -0.0000,   after     0.0000
 DoSCS=F DFT=T ScalE2(SS,OS)=  1.000000  1.000000
 Range of M.O.s used for correlation:     1   229
 NBasis=   229 NAE=    25 NBE=    25 NFC=     0 NFV=     0
 NROrb=    229 NOA=    25 NOB=    25 NVA=   204 NVB=   204

 **** Warning!!: The largest alpha MO coefficient is  0.27217687D+02


 **** Warning!!: The largest beta MO coefficient is  0.27217687D+02

 Symmetrizing basis deriv contribution to polar:
 IMax=3 JMax=2 DiffMx= 0.00D+00
   1 Symmetry operations used in ECPInt.
 ECPInt:  NShTT=    3655 NPrTT=   11788 LenC2=    3469 LenP2D=    8577.
 LDataN:  DoStor=T MaxTD1= 7 Len=  274
 Calling FoFJK, ICntrl=      2147 FMM=F ISym2X=0 I1Cent= 0 IOpClX= 1 NMat=1 NMatS=1 NMatT=0.
 -------------------------------------------------------------------
 Center     Atomic                   Forces (Hartrees/Bohr)
 Number     Number              X              Y              Z
 -------------------------------------------------------------------
      1        7          -0.000755271    0.000826270    0.001626895
      2        6           0.000023675   -0.000270152   -0.000919304
      3        7          -0.000020424    0.000013706   -0.000033087
      4        7          -0.000022675    0.000013599    0.000012002
      5        8           0.000002546   -0.000004802   -0.000003525
      6        7          -0.000006409    0.000081921    0.000041437
      7        6           0.000010807   -0.000002425    0.000086186
      8        1           0.000459476   -0.000697517   -0.000783313
      9        1           0.000308276    0.000039400   -0.000027291
 -------------------------------------------------------------------
 Cartesian Forces:  Max     0.001626895 RMS     0.000480962
 IRC-IRC-IRC-IRC-IRC-IRC-IRC-IRC-IRC-IRC-IRC-IRC-IRC-IRC-IRC-IRC-IRC-IRC
 Pt  1 Step number   1 out of a maximum of  20
 Modified Bulirsch-Stoer Extrapolation Cycles:
    EPS =    0.000010000000000
      PEZero:  N= 2 I= 1 D=  1.47D-04 Err=  3.54D-04
      PEZero:  N= 3 I= 2 D=  1.47D-04 Err=  2.37D-04
      PEZero:  N= 3 I= 1 D=  2.94D-04 Err=  1.62D-06
 Maximum DWI energy   std dev =  0.000000067 at pt     4
 Maximum DWI gradient std dev =  0.155477654 at pt    -1
 CORRECTOR INTEGRATION CONVERGENCE:
   Recorrection delta-x convergence threshold:    0.010000
   Delta-x Convergence NOT Met
 IRC-IRC-IRC-IRC-IRC-IRC-IRC-IRC-IRC-IRC-IRC-IRC-IRC-IRC-IRC-IRC-IRC-IRC
                          Input orientation:                          
 ---------------------------------------------------------------------
 Center     Atomic      Atomic             Coordinates (Angstroms)
 Number     Number       Type             X           Y           Z
 ---------------------------------------------------------------------
      1          7           0       -0.463135    2.352565   -0.028240
      2          6           0       -1.019145    1.330945    0.012128
      3          7           0        2.513181    0.217234    0.016021
      4          7           0        2.963940   -0.772536    0.015561
      5          8           0       -1.455848   -2.036298   -0.013120
      6          7           0       -0.860920   -0.976680   -0.058758
      7          6           0       -1.658749    0.147575    0.061825
      8          1           0        0.019502    3.217199   -0.090424
      9          1           0       -2.733075    0.094369    0.188052
 ---------------------------------------------------------------------
                    Distance matrix (angstroms):
                    1          2          3          4          5
     1  N    0.000000
     2  C    1.163823   0.000000
     3  N    3.663340   3.703741   0.000000
     4  N    4.638213   4.504399   1.087579   0.000000
     5  O    4.499759   3.395538   4.564258   4.597003   0.000000
     6  N    3.353063   2.314129   3.579885   3.831024   1.216065
     7  C    2.509897   1.346079   4.172763   4.713597   2.194559
     8  H    0.992168   2.155750   3.902507   4.959731   5.457277
     9  H    3.209184   2.120761   5.250514   5.765176   2.492292
                    6          7          8          9
     6  N    0.000000
     7  C    1.383843   0.000000
     8  H    4.285413   3.501756   0.000000
     9  H    2.170950   1.083024   4.172086   0.000000
 Symmetry turned off by external request.
 Stoichiometry    C2H2N4O
 Framework group  C1[X(C2H2N4O)]
 Deg. of freedom    21
 Full point group                 C1      NOp   1
 Rotational constants (GHZ):           2.5483255           1.6202479           0.9911078
 Standard basis: def2TZVP (5D, 7F)
   229 basis functions,   373 primitive gaussians,   264 cartesian basis functions
    25 alpha electrons       25 beta electrons
       nuclear repulsion energy       229.8610105444 Hartrees.
 NAtoms=    9 NActive=    9 NUniq=    9 SFac= 1.00D+00 NAtFMM=   60 NAOKFM=F Big=F
 Integral buffers will be    131072 words long.
 Raffenetti 2 integral format.
 Two-electron integral symmetry is turned off.
 Nuclear repulsion after empirical dispersion term =      229.8588116900 Hartrees.
 One-electron integrals computed using PRISM.
   1 Symmetry operations used in ECPInt.
 ECPInt:  NShTT=    3655 NPrTT=   11788 LenC2=    3470 LenP2D=    8580.
 LDataN:  DoStor=T MaxTD1= 6 Len=  172
 NBasis=   229 RedAO= T EigKep=  7.21D-05  NBF=   229
 NBsUse=   229 1.00D-06 EigRej= -1.00D+00 NBFU=   229
 Initial guess from the checkpoint file:  "/scratch/23935644/Gau-31853.chk"
 B after Tr=     0.000202   -0.000107    0.000090
         Rot=    1.000000   -0.000037    0.000002    0.000032 Ang=  -0.01 deg.
 Initial guess <Sx>= 0.0000 <Sy>= 0.0000 <Sz>= 0.0000 <S**2>= 0.0000 S= 0.0000
 ExpMin= 9.52D-02 ExpMax= 2.70D+04 ExpMxC= 9.22D+02 IAcc=2 IRadAn=         4 AccDes= 0.00D+00
 Harris functional with IExCor= 4639 and IRadAn=       4 diagonalized for initial guess.
 HarFok:  IExCor= 4639 AccDes= 0.00D+00 IRadAn=         4 IDoV= 1 UseB2=F ITyADJ=14
 ICtDFT=  3500011 ScaDFX=  1.000000  1.000000  1.000000  1.000000
 FoFCou: FMM=F IPFlag=           0 FMFlag=      100000 FMFlg1=           0
         NFxFlg=           0 DoJE=T BraDBF=F KetDBF=T FulRan=T
         wScrn=  0.000000 ICntrl=       500 IOpCl=  0 I1Cent=   200000004 NGrid=           0
         NMat0=    1 NMatS0=      1 NMatT0=    0 NMatD0=    1 NMtDS0=    0 NMtDT0=    0
 Symmetry not used in FoFCou.
 Requested convergence on RMS density matrix=1.00D-08 within 128 cycles.
 Requested convergence on MAX density matrix=1.00D-06.
 Requested convergence on             energy=1.00D-06.
 No special actions if energy rises.
 Integral accuracy reduced to 1.0D-05 until final iterations.
 Initial convergence to 1.0D-05 achieved.  Increase integral accuracy.
 SCF Done:  E(UwB97XD) =  -371.539818319     A.U. after   10 cycles
            NFock= 10  Conv=0.57D-08     -V/T= 2.0039
 <Sx>= 0.0000 <Sy>= 0.0000 <Sz>= 0.0000 <S**2>=-0.0000 S=-0.0000
 <L.S>=  0.00000000000    
 Annihilation of the first spin contaminant:
 S**2 before annihilation    -0.0000,   after    -0.0000
 DoSCS=F DFT=T ScalE2(SS,OS)=  1.000000  1.000000
 Range of M.O.s used for correlation:     1   229
 NBasis=   229 NAE=    25 NBE=    25 NFC=     0 NFV=     0
 NROrb=    229 NOA=    25 NOB=    25 NVA=   204 NVB=   204

 **** Warning!!: The largest alpha MO coefficient is  0.27101816D+02


 **** Warning!!: The largest beta MO coefficient is  0.27101816D+02

 Symmetrizing basis deriv contribution to polar:
 IMax=3 JMax=2 DiffMx= 0.00D+00
   1 Symmetry operations used in ECPInt.
 ECPInt:  NShTT=    3655 NPrTT=   11788 LenC2=    3470 LenP2D=    8580.
 LDataN:  DoStor=T MaxTD1= 7 Len=  274
 Calling FoFJK, ICntrl=      2147 FMM=F ISym2X=0 I1Cent= 0 IOpClX= 1 NMat=1 NMatS=1 NMatT=0.
 -------------------------------------------------------------------
 Center     Atomic                   Forces (Hartrees/Bohr)
 Number     Number              X              Y              Z
 -------------------------------------------------------------------
      1        7          -0.000596065    0.000415112    0.001236927
      2        6           0.000081237   -0.000116202   -0.000682261
      3        7          -0.000024040    0.000015260   -0.000030928
      4        7          -0.000023603    0.000016353    0.000010714
      5        8           0.000008067    0.000022052    0.000001679
      6        7           0.000053607    0.000007104    0.000033034
      7        6           0.000084560   -0.000018900    0.000038768
      8        1           0.000409808   -0.000341811   -0.000604695
      9        1           0.000006429    0.000001031   -0.000003238
 -------------------------------------------------------------------
 Cartesian Forces:  Max     0.001236927 RMS     0.000344800
 IRC-IRC-IRC-IRC-IRC-IRC-IRC-IRC-IRC-IRC-IRC-IRC-IRC-IRC-IRC-IRC-IRC-IRC
 Error in corrector energy =          -0.0000000710
 Magnitude of corrector gradient =     0.0017890039
 Magnitude of analytic gradient =      0.0017916350
 Magnitude of difference =             0.0001034057
 Angle between gradients (degrees)=    3.3087
 Pt  1 Step number   2 out of a maximum of  20
 Modified Bulirsch-Stoer Extrapolation Cycles:
    EPS =    0.000010000000000
      PEZero:  N= 2 I= 1 D=  1.47D-04 Err=  3.56D-04
      PEZero:  N= 3 I= 2 D=  1.47D-04 Err=  2.38D-04
      PEZero:  N= 3 I= 1 D=  2.94D-04 Err=  1.62D-06
 Maximum DWI energy   std dev =  0.000000018 at pt     1
 Maximum DWI gradient std dev =  0.102754697 at pt    15
 CORRECTOR INTEGRATION CONVERGENCE:
   Recorrection delta-x convergence threshold:    0.010000
   Delta-x Convergence Met
 Point Number:   1          Path Number:   1
   CHANGE IN THE REACTION COORDINATE =    0.04955
   NET REACTION COORDINATE UP TO THIS POINT =    0.04955
  # OF POINTS ALONG THE PATH =   1
  # OF STEPS =   2

 Calculating another point on the path.
 IRC-IRC-IRC-IRC-IRC-IRC-IRC-IRC-IRC-IRC-IRC-IRC-IRC-IRC-IRC-IRC-IRC-IRC
                          Input orientation:                          
 ---------------------------------------------------------------------
 Center     Atomic      Atomic             Coordinates (Angstroms)
 Number     Number       Type             X           Y           Z
 ---------------------------------------------------------------------
      1          7           0       -0.463821    2.353046   -0.024919
      2          6           0       -1.019092    1.330778    0.010225
      3          7           0        2.513134    0.217264    0.015954
      4          7           0        2.963895   -0.772503    0.015592
      5          8           0       -1.455821   -2.036265   -0.013101
      6          7           0       -0.860820   -0.976682   -0.058714
      7          6           0       -1.658680    0.147549    0.061825
      8          1           0        0.026994    3.211529   -0.114238
      9          1           0       -2.733003    0.094290    0.187954
 ---------------------------------------------------------------------
                    Distance matrix (angstroms):
                    1          2          3          4          5
     1  N    0.000000
     2  C    1.163870   0.000000
     3  N    3.664081   3.703588   0.000000
     4  N    4.638958   4.504221   1.087578   0.000000
     5  O    4.500029   3.395329   4.564191   4.596935   0.000000
     6  N    3.353482   2.313909   3.579755   3.830882   1.216069
     7  C    2.509866   1.346018   4.172648   4.713473   2.194496
     8  H    0.992910   2.155693   3.894028   4.951237   5.454202
     9  H    3.208813   2.120844   5.250396   5.765040   2.492164
                    6          7          8          9
     6  N    0.000000
     7  C    1.383838   0.000000
     8  H    4.281636   3.501495   0.000000
     9  H    2.170921   1.083012   4.174456   0.000000
 Symmetry turned off by external request.
 Stoichiometry    C2H2N4O
 Framework group  C1[X(C2H2N4O)]
 Deg. of freedom    21
 Full point group                 C1      NOp   1
 Rotational constants (GHZ):           2.5484708           1.6202692           0.9911447
 Standard basis: def2TZVP (5D, 7F)
   229 basis functions,   373 primitive gaussians,   264 cartesian basis functions
    25 alpha electrons       25 beta electrons
       nuclear repulsion energy       229.8624584112 Hartrees.
 NAtoms=    9 NActive=    9 NUniq=    9 SFac= 1.00D+00 NAtFMM=   60 NAOKFM=F Big=F
 Integral buffers will be    131072 words long.
 Raffenetti 2 integral format.
 Two-electron integral symmetry is turned off.
 Nuclear repulsion after empirical dispersion term =      229.8602588150 Hartrees.
 One-electron integrals computed using PRISM.
   1 Symmetry operations used in ECPInt.
 ECPInt:  NShTT=    3655 NPrTT=   11788 LenC2=    3471 LenP2D=    8581.
 LDataN:  DoStor=T MaxTD1= 6 Len=  172
 NBasis=   229 RedAO= T EigKep=  7.23D-05  NBF=   229
 NBsUse=   229 1.00D-06 EigRej= -1.00D+00 NBFU=   229
 Initial guess from the checkpoint file:  "/scratch/23935644/Gau-31853.chk"
 B after Tr=     0.000139   -0.000111   -0.000426
         Rot=    1.000000    0.000182   -0.000000    0.000022 Ang=   0.02 deg.
 Initial guess <Sx>= 0.0000 <Sy>= 0.0000 <Sz>= 0.0000 <S**2>=-0.0000 S=-0.0000
 ExpMin= 9.52D-02 ExpMax= 2.70D+04 ExpMxC= 9.22D+02 IAcc=2 IRadAn=         4 AccDes= 0.00D+00
 Harris functional with IExCor= 4639 and IRadAn=       4 diagonalized for initial guess.
 HarFok:  IExCor= 4639 AccDes= 0.00D+00 IRadAn=         4 IDoV= 1 UseB2=F ITyADJ=14
 ICtDFT=  3500011 ScaDFX=  1.000000  1.000000  1.000000  1.000000
 FoFCou: FMM=F IPFlag=           0 FMFlag=      100000 FMFlg1=           0
         NFxFlg=           0 DoJE=T BraDBF=F KetDBF=T FulRan=T
         wScrn=  0.000000 ICntrl=       500 IOpCl=  0 I1Cent=   200000004 NGrid=           0
         NMat0=    1 NMatS0=      1 NMatT0=    0 NMatD0=    1 NMtDS0=    0 NMtDT0=    0
 Symmetry not used in FoFCou.
 Requested convergence on RMS density matrix=1.00D-08 within 128 cycles.
 Requested convergence on MAX density matrix=1.00D-06.
 Requested convergence on             energy=1.00D-06.
 No special actions if energy rises.
 Integral accuracy reduced to 1.0D-05 until final iterations.
 Initial convergence to 1.0D-05 achieved.  Increase integral accuracy.
 SCF Done:  E(UwB97XD) =  -371.539882965     A.U. after   12 cycles
            NFock= 12  Conv=0.88D-08     -V/T= 2.0039
 <Sx>= 0.0000 <Sy>= 0.0000 <Sz>= 0.0000 <S**2>=-0.0000 S=-0.0000
 <L.S>=  0.00000000000    
 Annihilation of the first spin contaminant:
 S**2 before annihilation    -0.0000,   after     0.0000
 DoSCS=F DFT=T ScalE2(SS,OS)=  1.000000  1.000000
 Range of M.O.s used for correlation:     1   229
 NBasis=   229 NAE=    25 NBE=    25 NFC=     0 NFV=     0
 NROrb=    229 NOA=    25 NOB=    25 NVA=   204 NVB=   204

 **** Warning!!: The largest alpha MO coefficient is  0.26502349D+02


 **** Warning!!: The largest beta MO coefficient is  0.26502349D+02

 Symmetrizing basis deriv contribution to polar:
 IMax=3 JMax=2 DiffMx= 0.00D+00
   1 Symmetry operations used in ECPInt.
 ECPInt:  NShTT=    3655 NPrTT=   11788 LenC2=    3471 LenP2D=    8581.
 LDataN:  DoStor=T MaxTD1= 7 Len=  274
 Calling FoFJK, ICntrl=      2147 FMM=F ISym2X=0 I1Cent= 0 IOpClX= 1 NMat=1 NMatS=1 NMatT=0.
 -------------------------------------------------------------------
 Center     Atomic                   Forces (Hartrees/Bohr)
 Number     Number              X              Y              Z
 -------------------------------------------------------------------
      1        7           0.000331424    0.000942425    0.002394232
      2        6          -0.000119670   -0.000184764   -0.001125023
      3        7          -0.000026195    0.000016996   -0.000045073
      4        7          -0.000023772    0.000017263    0.000018652
      5        8           0.000026357    0.000028409    0.000020102
      6        7           0.000052487   -0.000024953    0.000030371
      7        6           0.000006359    0.000034252   -0.000035629
      8        1          -0.000243829   -0.000824236   -0.001234796
      9        1          -0.000003162   -0.000005392   -0.000022836
 -------------------------------------------------------------------
 Cartesian Forces:  Max     0.002394232 RMS     0.000618286
 IRC-IRC-IRC-IRC-IRC-IRC-IRC-IRC-IRC-IRC-IRC-IRC-IRC-IRC-IRC-IRC-IRC-IRC
 Pt  2 Step number   1 out of a maximum of  20
 Modified Bulirsch-Stoer Extrapolation Cycles:
    EPS =    0.000010000000000
      PEZero:  N= 2 I= 1 D=  2.90D-04 Err=  1.52D-04
      PEZero:  N= 3 I= 2 D=  2.90D-04 Err=  1.01D-04
      PEZero:  N= 3 I= 1 D=  5.80D-04 Err=  4.55D-07
 Maximum DWI energy   std dev =  0.000000114 at pt    43
 Maximum DWI gradient std dev =  0.186819319 at pt    28
 CORRECTOR INTEGRATION CONVERGENCE:
   Recorrection delta-x convergence threshold:    0.010000
   Delta-x Convergence Met
 Point Number:   2          Path Number:   1
   CHANGE IN THE REACTION COORDINATE =    0.05503
   NET REACTION COORDINATE UP TO THIS POINT =    0.10459
  # OF POINTS ALONG THE PATH =   2
  # OF STEPS =   1

 Calculating another point on the path.
 IRC-IRC-IRC-IRC-IRC-IRC-IRC-IRC-IRC-IRC-IRC-IRC-IRC-IRC-IRC-IRC-IRC-IRC
                          Input orientation:                          
 ---------------------------------------------------------------------
 Center     Atomic      Atomic             Coordinates (Angstroms)
 Number     Number       Type             X           Y           Z
 ---------------------------------------------------------------------
      1          7           0       -0.463715    2.353237   -0.021504
      2          6           0       -1.019234    1.330711    0.008411
      3          7           0        2.513104    0.217284    0.015895
      4          7           0        2.963868   -0.772483    0.015613
      5          8           0       -1.455798   -2.036231   -0.013081
      6          7           0       -0.860751   -0.976719   -0.058654
      7          6           0       -1.658689    0.147602    0.061734
      8          1           0        0.026928    3.208431   -0.139735
      9          1           0       -2.733059    0.094238    0.187412
 ---------------------------------------------------------------------
                    Distance matrix (angstroms):
                    1          2          3          4          5
     1  N    0.000000
     2  C    1.164068   0.000000
     3  N    3.664034   3.703671   0.000000
     4  N    4.638947   4.504284   1.087578   0.000000
     5  O    4.500192   3.395195   4.564137   4.596882   0.000000
     6  N    3.353747   2.313837   3.579678   3.830788   1.216028
     7  C    2.509923   1.345917   4.172627   4.713462   2.194514
     8  H    0.993009   2.154585   3.892589   4.949487   5.451697
     9  H    3.208838   2.120873   5.250408   5.765041   2.492086
                    6          7          8          9
     6  N    0.000000
     7  C    1.383942   0.000000
     8  H    4.279021   3.500081   0.000000
     9  H    2.170952   1.083011   4.174057   0.000000
 Symmetry turned off by external request.
 Stoichiometry    C2H2N4O
 Framework group  C1[X(C2H2N4O)]
 Deg. of freedom    21
 Full point group                 C1      NOp   1
 Rotational constants (GHZ):           2.5485679           1.6202738           0.9911745
 Standard basis: def2TZVP (5D, 7F)
   229 basis functions,   373 primitive gaussians,   264 cartesian basis functions
    25 alpha electrons       25 beta electrons
       nuclear repulsion energy       229.8619854446 Hartrees.
 NAtoms=    9 NActive=    9 NUniq=    9 SFac= 1.00D+00 NAtFMM=   60 NAOKFM=F Big=F
 Integral buffers will be    131072 words long.
 Raffenetti 2 integral format.
 Two-electron integral symmetry is turned off.
 Nuclear repulsion after empirical dispersion term =      229.8597856038 Hartrees.
 One-electron integrals computed using PRISM.
   1 Symmetry operations used in ECPInt.
 ECPInt:  NShTT=    3655 NPrTT=   11788 LenC2=    3471 LenP2D=    8581.
 LDataN:  DoStor=T MaxTD1= 6 Len=  172
 NBasis=   229 RedAO= T EigKep=  7.26D-05  NBF=   229
 NBsUse=   229 1.00D-06 EigRej= -1.00D+00 NBFU=   229
 Initial guess from the checkpoint file:  "/scratch/23935644/Gau-31853.chk"
 B after Tr=    -0.000000   -0.000061   -0.000477
         Rot=    1.000000    0.000197    0.000001   -0.000000 Ang=   0.02 deg.
 Initial guess <Sx>= 0.0000 <Sy>= 0.0000 <Sz>= 0.0000 <S**2>= 0.0000 S= 0.0000
 ExpMin= 9.52D-02 ExpMax= 2.70D+04 ExpMxC= 9.22D+02 IAcc=2 IRadAn=         4 AccDes= 0.00D+00
 Harris functional with IExCor= 4639 and IRadAn=       4 diagonalized for initial guess.
 HarFok:  IExCor= 4639 AccDes= 0.00D+00 IRadAn=         4 IDoV= 1 UseB2=F ITyADJ=14
 ICtDFT=  3500011 ScaDFX=  1.000000  1.000000  1.000000  1.000000
 FoFCou: FMM=F IPFlag=           0 FMFlag=      100000 FMFlg1=           0
         NFxFlg=           0 DoJE=T BraDBF=F KetDBF=T FulRan=T
         wScrn=  0.000000 ICntrl=       500 IOpCl=  0 I1Cent=   200000004 NGrid=           0
         NMat0=    1 NMatS0=      1 NMatT0=    0 NMatD0=    1 NMtDS0=    0 NMtDT0=    0
 Symmetry not used in FoFCou.
 Requested convergence on RMS density matrix=1.00D-08 within 128 cycles.
 Requested convergence on MAX density matrix=1.00D-06.
 Requested convergence on             energy=1.00D-06.
 No special actions if energy rises.
 Integral accuracy reduced to 1.0D-05 until final iterations.
 Initial convergence to 1.0D-05 achieved.  Increase integral accuracy.
 SCF Done:  E(UwB97XD) =  -371.539990457     A.U. after   12 cycles
            NFock= 12  Conv=0.58D-08     -V/T= 2.0039
 <Sx>= 0.0000 <Sy>= 0.0000 <Sz>= 0.0000 <S**2>=-0.0000 S=-0.0000
 <L.S>=  0.00000000000    
 Annihilation of the first spin contaminant:
 S**2 before annihilation    -0.0000,   after     0.0000
 DoSCS=F DFT=T ScalE2(SS,OS)=  1.000000  1.000000
 Range of M.O.s used for correlation:     1   229
 NBasis=   229 NAE=    25 NBE=    25 NFC=     0 NFV=     0
 NROrb=    229 NOA=    25 NOB=    25 NVA=   204 NVB=   204

 **** Warning!!: The largest alpha MO coefficient is  0.25245228D+02


 **** Warning!!: The largest beta MO coefficient is  0.25245228D+02

 Symmetrizing basis deriv contribution to polar:
 IMax=3 JMax=2 DiffMx= 0.00D+00
   1 Symmetry operations used in ECPInt.
 ECPInt:  NShTT=    3655 NPrTT=   11788 LenC2=    3471 LenP2D=    8581.
 LDataN:  DoStor=T MaxTD1= 7 Len=  274
 Calling FoFJK, ICntrl=      2147 FMM=F ISym2X=0 I1Cent= 0 IOpClX= 1 NMat=1 NMatS=1 NMatT=0.
 -------------------------------------------------------------------
 Center     Atomic                   Forces (Hartrees/Bohr)
 Number     Number              X              Y              Z
 -------------------------------------------------------------------
      1        7           0.000661867    0.000908796    0.003755818
      2        6          -0.000242440   -0.000194125   -0.001685249
      3        7          -0.000025579    0.000016975   -0.000059651
      4        7          -0.000023102    0.000016635    0.000026906
      5        8           0.000030729    0.000049388    0.000030803
      6        7           0.000063043   -0.000057017    0.000045543
      7        6          -0.000007871    0.000092045   -0.000104907
      8        1          -0.000450963   -0.000825865   -0.001974029
      9        1          -0.000005684   -0.000006830   -0.000035233
 -------------------------------------------------------------------
 Cartesian Forces:  Max     0.003755818 RMS     0.000925551
 IRC-IRC-IRC-IRC-IRC-IRC-IRC-IRC-IRC-IRC-IRC-IRC-IRC-IRC-IRC-IRC-IRC-IRC
 Pt  3 Step number   1 out of a maximum of  20
 Modified Bulirsch-Stoer Extrapolation Cycles:
    EPS =    0.000010000000000
      PEZero:  N= 2 I= 1 D=  2.93D-04 Err=  4.05D-05
      PEZero:  N= 3 I= 2 D=  2.93D-04 Err=  2.69D-05
      PEZero:  N= 3 I= 1 D=  5.87D-04 Err=  1.30D-07
 Maximum DWI energy   std dev =  0.000000265 at pt    50
 Maximum DWI gradient std dev =  0.112984614 at pt    37
 CORRECTOR INTEGRATION CONVERGENCE:
   Recorrection delta-x convergence threshold:    0.010000
   Delta-x Convergence Met
 Point Number:   3          Path Number:   1
   CHANGE IN THE REACTION COORDINATE =    0.05629
   NET REACTION COORDINATE UP TO THIS POINT =    0.16088
  # OF POINTS ALONG THE PATH =   3
  # OF STEPS =   1

 Calculating another point on the path.
 IRC-IRC-IRC-IRC-IRC-IRC-IRC-IRC-IRC-IRC-IRC-IRC-IRC-IRC-IRC-IRC-IRC-IRC
                          Input orientation:                          
 ---------------------------------------------------------------------
 Center     Atomic      Atomic             Coordinates (Angstroms)
 Number     Number       Type             X           Y           Z
 ---------------------------------------------------------------------
      1          7           0       -0.463410    2.353379   -0.018079
      2          6           0       -1.019434    1.330655    0.006639
      3          7           0        2.513085    0.217296    0.015842
      4          7           0        2.963851   -0.772471    0.015637
      5          8           0       -1.455780   -2.036188   -0.013055
      6          7           0       -0.860688   -0.976777   -0.058614
      7          6           0       -1.658705    0.147699    0.061613
      8          1           0        0.024727    3.205706   -0.165560
      9          1           0       -2.733112    0.094184    0.186940
 ---------------------------------------------------------------------
                    Distance matrix (angstroms):
                    1          2          3          4          5
     1  N    0.000000
     2  C    1.164362   0.000000
     3  N    3.663813   3.703828   0.000000
     4  N    4.638771   4.504418   1.087579   0.000000
     5  O    4.500347   3.395058   4.564089   4.596840   0.000000
     6  N    3.354014   2.313806   3.579623   3.830712   1.215961
     7  C    2.510001   1.345761   4.172621   4.713476   2.194566
     8  H    0.993221   2.153077   3.892997   4.949462   5.449093
     9  H    3.208978   2.120863   5.250430   5.765052   2.492000
                    6          7          8          9
     6  N    0.000000
     7  C    1.384099   0.000000
     8  H    4.276512   3.498136   0.000000
     9  H    2.170996   1.083015   4.172708   0.000000
 Symmetry turned off by external request.
 Stoichiometry    C2H2N4O
 Framework group  C1[X(C2H2N4O)]
 Deg. of freedom    21
 Full point group                 C1      NOp   1
 Rotational constants (GHZ):           2.5486423           1.6202638           0.9912025
 Standard basis: def2TZVP (5D, 7F)
   229 basis functions,   373 primitive gaussians,   264 cartesian basis functions
    25 alpha electrons       25 beta electrons
       nuclear repulsion energy       229.8594835531 Hartrees.
 NAtoms=    9 NActive=    9 NUniq=    9 SFac= 1.00D+00 NAtFMM=   60 NAOKFM=F Big=F
 Integral buffers will be    131072 words long.
 Raffenetti 2 integral format.
 Two-electron integral symmetry is turned off.
 Nuclear repulsion after empirical dispersion term =      229.8572835957 Hartrees.
 One-electron integrals computed using PRISM.
   1 Symmetry operations used in ECPInt.
 ECPInt:  NShTT=    3655 NPrTT=   11788 LenC2=    3471 LenP2D=    8581.
 LDataN:  DoStor=T MaxTD1= 6 Len=  172
 NBasis=   229 RedAO= T EigKep=  7.31D-05  NBF=   229
 NBsUse=   229 1.00D-06 EigRej= -1.00D+00 NBFU=   229
 Initial guess from the checkpoint file:  "/scratch/23935644/Gau-31853.chk"
 B after Tr=    -0.000040   -0.000053   -0.000481
         Rot=    1.000000    0.000200   -0.000000   -0.000007 Ang=   0.02 deg.
 Initial guess <Sx>= 0.0000 <Sy>= 0.0000 <Sz>= 0.0000 <S**2>= 0.0000 S= 0.0000
 ExpMin= 9.52D-02 ExpMax= 2.70D+04 ExpMxC= 9.22D+02 IAcc=2 IRadAn=         4 AccDes= 0.00D+00
 Harris functional with IExCor= 4639 and IRadAn=       4 diagonalized for initial guess.
 HarFok:  IExCor= 4639 AccDes= 0.00D+00 IRadAn=         4 IDoV= 1 UseB2=F ITyADJ=14
 ICtDFT=  3500011 ScaDFX=  1.000000  1.000000  1.000000  1.000000
 FoFCou: FMM=F IPFlag=           0 FMFlag=      100000 FMFlg1=           0
         NFxFlg=           0 DoJE=T BraDBF=F KetDBF=T FulRan=T
         wScrn=  0.000000 ICntrl=       500 IOpCl=  0 I1Cent=   200000004 NGrid=           0
         NMat0=    1 NMatS0=      1 NMatT0=    0 NMatD0=    1 NMtDS0=    0 NMtDT0=    0
 Symmetry not used in FoFCou.
 Requested convergence on RMS density matrix=1.00D-08 within 128 cycles.
 Requested convergence on MAX density matrix=1.00D-06.
 Requested convergence on             energy=1.00D-06.
 No special actions if energy rises.
 Integral accuracy reduced to 1.0D-05 until final iterations.
 Initial convergence to 1.0D-05 achieved.  Increase integral accuracy.
 SCF Done:  E(UwB97XD) =  -371.540147906     A.U. after   12 cycles
            NFock= 12  Conv=0.81D-08     -V/T= 2.0039
 <Sx>= 0.0000 <Sy>= 0.0000 <Sz>= 0.0000 <S**2>=-0.0000 S=-0.0000
 <L.S>=  0.00000000000    
 Annihilation of the first spin contaminant:
 S**2 before annihilation    -0.0000,   after    -0.0000
 DoSCS=F DFT=T ScalE2(SS,OS)=  1.000000  1.000000
 Range of M.O.s used for correlation:     1   229
 NBasis=   229 NAE=    25 NBE=    25 NFC=     0 NFV=     0
 NROrb=    229 NOA=    25 NOB=    25 NVA=   204 NVB=   204

 **** Warning!!: The largest alpha MO coefficient is  0.24265087D+02


 **** Warning!!: The largest beta MO coefficient is  0.24265087D+02

 Symmetrizing basis deriv contribution to polar:
 IMax=3 JMax=2 DiffMx= 0.00D+00
   1 Symmetry operations used in ECPInt.
 ECPInt:  NShTT=    3655 NPrTT=   11788 LenC2=    3471 LenP2D=    8581.
 LDataN:  DoStor=T MaxTD1= 7 Len=  274
 Calling FoFJK, ICntrl=      2147 FMM=F ISym2X=0 I1Cent= 0 IOpClX= 1 NMat=1 NMatS=1 NMatT=0.
 -------------------------------------------------------------------
 Center     Atomic                   Forces (Hartrees/Bohr)
 Number     Number              X              Y              Z
 -------------------------------------------------------------------
      1        7           0.000981854    0.000994771    0.005114722
      2        6          -0.000356998   -0.000215348   -0.002260454
      3        7          -0.000024058    0.000016684   -0.000074139
      4        7          -0.000021996    0.000015220    0.000035147
      5        8           0.000028363    0.000081439    0.000041939
      6        7           0.000089598   -0.000101452    0.000058873
      7        6          -0.000013877    0.000158433   -0.000163624
      8        1          -0.000675638   -0.000942225   -0.002702304
      9        1          -0.000007248   -0.000007522   -0.000050160
 -------------------------------------------------------------------
 Cartesian Forces:  Max     0.005114722 RMS     0.001249269
 IRC-IRC-IRC-IRC-IRC-IRC-IRC-IRC-IRC-IRC-IRC-IRC-IRC-IRC-IRC-IRC-IRC-IRC
 Pt  4 Step number   1 out of a maximum of  20
 Modified Bulirsch-Stoer Extrapolation Cycles:
    EPS =    0.000010000000000
      PEZero:  N= 2 I= 1 D=  2.94D-04 Err=  1.43D-05
      PEZero:  N= 3 I= 2 D=  2.94D-04 Err=  9.52D-06
      PEZero:  N= 3 I= 1 D=  5.87D-04 Err=  5.73D-08
 Maximum DWI energy   std dev =  0.000000272 at pt    45
 Maximum DWI gradient std dev =  0.086161065 at pt    28
 CORRECTOR INTEGRATION CONVERGENCE:
   Recorrection delta-x convergence threshold:    0.010000
   Delta-x Convergence Met
 Point Number:   4          Path Number:   1
   CHANGE IN THE REACTION COORDINATE =    0.05636
   NET REACTION COORDINATE UP TO THIS POINT =    0.21724
  # OF POINTS ALONG THE PATH =   4
  # OF STEPS =   1

 Calculating another point on the path.
 IRC-IRC-IRC-IRC-IRC-IRC-IRC-IRC-IRC-IRC-IRC-IRC-IRC-IRC-IRC-IRC-IRC-IRC
                          Input orientation:                          
 ---------------------------------------------------------------------
 Center     Atomic      Atomic             Coordinates (Angstroms)
 Number     Number       Type             X           Y           Z
 ---------------------------------------------------------------------
      1          7           0       -0.463004    2.353529   -0.014681
      2          6           0       -1.019664    1.330595    0.004901
      3          7           0        2.513071    0.217305    0.015795
      4          7           0        2.963838   -0.772462    0.015660
      5          8           0       -1.455767   -2.036135   -0.013032
      6          7           0       -0.860622   -0.976854   -0.058576
      7          6           0       -1.658719    0.147829    0.061483
      8          1           0        0.021306    3.202733   -0.191307
      9          1           0       -2.733164    0.094132    0.186462
 ---------------------------------------------------------------------
                    Distance matrix (angstroms):
                    1          2          3          4          5
     1  N    0.000000
     2  C    1.164752   0.000000
     3  N    3.663524   3.704018   0.000000
     4  N    4.638534   4.504582   1.087580   0.000000
     5  O    4.500526   3.394905   4.564045   4.596804   0.000000
     6  N    3.354323   2.313794   3.579575   3.830638   1.215874
     7  C    2.510109   1.345558   4.172619   4.713499   2.194639
     8  H    0.993428   2.151050   3.894171   4.950102   5.446032
     9  H    3.209199   2.120822   5.250455   5.765067   2.491903
                    6          7          8          9
     6  N    0.000000
     7  C    1.384300   0.000000
     8  H    4.273683   3.495543   0.000000
     9  H    2.171052   1.083021   4.170517   0.000000
 Symmetry turned off by external request.
 Stoichiometry    C2H2N4O
 Framework group  C1[X(C2H2N4O)]
 Deg. of freedom    21
 Full point group                 C1      NOp   1
 Rotational constants (GHZ):           2.5487097           1.6202436           0.9912324
 Standard basis: def2TZVP (5D, 7F)
   229 basis functions,   373 primitive gaussians,   264 cartesian basis functions
    25 alpha electrons       25 beta electrons
       nuclear repulsion energy       229.8558831866 Hartrees.
 NAtoms=    9 NActive=    9 NUniq=    9 SFac= 1.00D+00 NAtFMM=   60 NAOKFM=F Big=F
 Integral buffers will be    131072 words long.
 Raffenetti 2 integral format.
 Two-electron integral symmetry is turned off.
 Nuclear repulsion after empirical dispersion term =      229.8536831469 Hartrees.
 One-electron integrals computed using PRISM.
   1 Symmetry operations used in ECPInt.
 ECPInt:  NShTT=    3655 NPrTT=   11788 LenC2=    3471 LenP2D=    8581.
 LDataN:  DoStor=T MaxTD1= 6 Len=  172
 NBasis=   229 RedAO= T EigKep=  7.36D-05  NBF=   229
 NBsUse=   229 1.00D-06 EigRej= -1.00D+00 NBFU=   229
 Initial guess from the checkpoint file:  "/scratch/23935644/Gau-31853.chk"
 B after Tr=    -0.000063   -0.000057   -0.000481
         Rot=    1.000000    0.000199   -0.000000   -0.000010 Ang=   0.02 deg.
 Initial guess <Sx>= 0.0000 <Sy>= 0.0000 <Sz>= 0.0000 <S**2>=-0.0000 S=-0.0000
 ExpMin= 9.52D-02 ExpMax= 2.70D+04 ExpMxC= 9.22D+02 IAcc=2 IRadAn=         4 AccDes= 0.00D+00
 Harris functional with IExCor= 4639 and IRadAn=       4 diagonalized for initial guess.
 HarFok:  IExCor= 4639 AccDes= 0.00D+00 IRadAn=         4 IDoV= 1 UseB2=F ITyADJ=14
 ICtDFT=  3500011 ScaDFX=  1.000000  1.000000  1.000000  1.000000
 FoFCou: FMM=F IPFlag=           0 FMFlag=      100000 FMFlg1=           0
         NFxFlg=           0 DoJE=T BraDBF=F KetDBF=T FulRan=T
         wScrn=  0.000000 ICntrl=       500 IOpCl=  0 I1Cent=   200000004 NGrid=           0
         NMat0=    1 NMatS0=      1 NMatT0=    0 NMatD0=    1 NMtDS0=    0 NMtDT0=    0
 Symmetry not used in FoFCou.
 Requested convergence on RMS density matrix=1.00D-08 within 128 cycles.
 Requested convergence on MAX density matrix=1.00D-06.
 Requested convergence on             energy=1.00D-06.
 No special actions if energy rises.
 Integral accuracy reduced to 1.0D-05 until final iterations.
 Initial convergence to 1.0D-05 achieved.  Increase integral accuracy.
 SCF Done:  E(UwB97XD) =  -371.540354436     A.U. after   12 cycles
            NFock= 12  Conv=0.72D-08     -V/T= 2.0039
 <Sx>= 0.0000 <Sy>= 0.0000 <Sz>= 0.0000 <S**2>=-0.0000 S=-0.0000
 <L.S>=  0.00000000000    
 Annihilation of the first spin contaminant:
 S**2 before annihilation    -0.0000,   after     0.0000
 DoSCS=F DFT=T ScalE2(SS,OS)=  1.000000  1.000000
 Range of M.O.s used for correlation:     1   229
 NBasis=   229 NAE=    25 NBE=    25 NFC=     0 NFV=     0
 NROrb=    229 NOA=    25 NOB=    25 NVA=   204 NVB=   204

 **** Warning!!: The largest alpha MO coefficient is  0.23940202D+02


 **** Warning!!: The largest beta MO coefficient is  0.23940202D+02

 Symmetrizing basis deriv contribution to polar:
 IMax=3 JMax=2 DiffMx= 0.00D+00
   1 Symmetry operations used in ECPInt.
 ECPInt:  NShTT=    3655 NPrTT=   11788 LenC2=    3471 LenP2D=    8581.
 LDataN:  DoStor=T MaxTD1= 7 Len=  274
 Calling FoFJK, ICntrl=      2147 FMM=F ISym2X=0 I1Cent= 0 IOpClX= 1 NMat=1 NMatS=1 NMatT=0.
 -------------------------------------------------------------------
 Center     Atomic                   Forces (Hartrees/Bohr)
 Number     Number              X              Y              Z
 -------------------------------------------------------------------
      1        7           0.001251882    0.001067481    0.006439931
      2        6          -0.000466368   -0.000242714   -0.002822257
      3        7          -0.000021948    0.000016115   -0.000088333
      4        7          -0.000020604    0.000013462    0.000043260
      5        8           0.000023181    0.000125910    0.000053242
      6        7           0.000128503   -0.000163804    0.000070346
      7        6          -0.000014645    0.000245362   -0.000219046
      8        1          -0.000871598   -0.001053005   -0.003412226
      9        1          -0.000008405   -0.000008808   -0.000064917
 -------------------------------------------------------------------
 Cartesian Forces:  Max     0.006439931 RMS     0.001564941
 IRC-IRC-IRC-IRC-IRC-IRC-IRC-IRC-IRC-IRC-IRC-IRC-IRC-IRC-IRC-IRC-IRC-IRC
 Pt  5 Step number   1 out of a maximum of  20
 Modified Bulirsch-Stoer Extrapolation Cycles:
    EPS =    0.000010000000000
      PEZero:  N= 2 I= 1 D=  2.94D-04 Err=  6.41D-06
 Maximum DWI energy   std dev =  0.000000282 at pt    28
 Maximum DWI gradient std dev =  0.066902321 at pt    38
 CORRECTOR INTEGRATION CONVERGENCE:
   Recorrection delta-x convergence threshold:    0.010000
   Delta-x Convergence Met
 Point Number:   5          Path Number:   1
   CHANGE IN THE REACTION COORDINATE =    0.05637
   NET REACTION COORDINATE UP TO THIS POINT =    0.27361
  # OF POINTS ALONG THE PATH =   5
  # OF STEPS =   1

 Calculating another point on the path.
 IRC-IRC-IRC-IRC-IRC-IRC-IRC-IRC-IRC-IRC-IRC-IRC-IRC-IRC-IRC-IRC-IRC-IRC
                          Input orientation:                          
 ---------------------------------------------------------------------
 Center     Atomic      Atomic             Coordinates (Angstroms)
 Number     Number       Type             X           Y           Z
 ---------------------------------------------------------------------
      1          7           0       -0.462542    2.353706   -0.011304
      2          6           0       -1.019913    1.330525    0.003183
      3          7           0        2.513061    0.217313    0.015750
      4          7           0        2.963829   -0.772456    0.015682
      5          8           0       -1.455760   -2.036071   -0.013007
      6          7           0       -0.860548   -0.976951   -0.058541
      7          6           0       -1.658730    0.147990    0.061346
      8          1           0        0.017125    3.199321   -0.216921
      9          1           0       -2.733213    0.094078    0.185976
 ---------------------------------------------------------------------
                    Distance matrix (angstroms):
                    1          2          3          4          5
     1  N    0.000000
     2  C    1.165234   0.000000
     3  N    3.663212   3.704228   0.000000
     4  N    4.638279   4.504763   1.087582   0.000000
     5  O    4.500736   3.394730   4.564001   4.596772   0.000000
     6  N    3.354685   2.313796   3.579528   3.830559   1.215766
     7  C    2.510244   1.345310   4.172616   4.713529   2.194732
     8  H    0.993691   2.148555   3.895665   4.950978   5.442453
     9  H    3.209484   2.120758   5.250482   5.765082   2.491789
                    6          7          8          9
     6  N    0.000000
     7  C    1.384543   0.000000
     8  H    4.270437   3.492354   0.000000
     9  H    2.171121   1.083030   4.167639   0.000000
 Symmetry turned off by external request.
 Stoichiometry    C2H2N4O
 Framework group  C1[X(C2H2N4O)]
 Deg. of freedom    21
 Full point group                 C1      NOp   1
 Rotational constants (GHZ):           2.5487739           1.6202141           0.9912648
 Standard basis: def2TZVP (5D, 7F)
   229 basis functions,   373 primitive gaussians,   264 cartesian basis functions
    25 alpha electrons       25 beta electrons
       nuclear repulsion energy       229.8511296169 Hartrees.
 NAtoms=    9 NActive=    9 NUniq=    9 SFac= 1.00D+00 NAtFMM=   60 NAOKFM=F Big=F
 Integral buffers will be    131072 words long.
 Raffenetti 2 integral format.
 Two-electron integral symmetry is turned off.
 Nuclear repulsion after empirical dispersion term =      229.8489294923 Hartrees.
 One-electron integrals computed using PRISM.
   1 Symmetry operations used in ECPInt.
 ECPInt:  NShTT=    3655 NPrTT=   11788 LenC2=    3471 LenP2D=    8581.
 LDataN:  DoStor=T MaxTD1= 6 Len=  172
 NBasis=   229 RedAO= T EigKep=  7.41D-05  NBF=   229
 NBsUse=   229 1.00D-06 EigRej= -1.00D+00 NBFU=   229
 Initial guess from the checkpoint file:  "/scratch/23935644/Gau-31853.chk"
 B after Tr=    -0.000078   -0.000065   -0.000478
         Rot=    1.000000    0.000199   -0.000001   -0.000013 Ang=   0.02 deg.
 Initial guess <Sx>= 0.0000 <Sy>= 0.0000 <Sz>= 0.0000 <S**2>= 0.0000 S= 0.0000
 ExpMin= 9.52D-02 ExpMax= 2.70D+04 ExpMxC= 9.22D+02 IAcc=2 IRadAn=         4 AccDes= 0.00D+00
 Harris functional with IExCor= 4639 and IRadAn=       4 diagonalized for initial guess.
 HarFok:  IExCor= 4639 AccDes= 0.00D+00 IRadAn=         4 IDoV= 1 UseB2=F ITyADJ=14
 ICtDFT=  3500011 ScaDFX=  1.000000  1.000000  1.000000  1.000000
 FoFCou: FMM=F IPFlag=           0 FMFlag=      100000 FMFlg1=           0
         NFxFlg=           0 DoJE=T BraDBF=F KetDBF=T FulRan=T
         wScrn=  0.000000 ICntrl=       500 IOpCl=  0 I1Cent=   200000004 NGrid=           0
         NMat0=    1 NMatS0=      1 NMatT0=    0 NMatD0=    1 NMtDS0=    0 NMtDT0=    0
 Symmetry not used in FoFCou.
 Requested convergence on RMS density matrix=1.00D-08 within 128 cycles.
 Requested convergence on MAX density matrix=1.00D-06.
 Requested convergence on             energy=1.00D-06.
 No special actions if energy rises.
 Integral accuracy reduced to 1.0D-05 until final iterations.
 Initial convergence to 1.0D-05 achieved.  Increase integral accuracy.
 SCF Done:  E(UwB97XD) =  -371.540608340     A.U. after   12 cycles
            NFock= 12  Conv=0.78D-08     -V/T= 2.0039
 <Sx>= 0.0000 <Sy>= 0.0000 <Sz>= 0.0000 <S**2>=-0.0000 S=-0.0000
 <L.S>=  0.00000000000    
 Annihilation of the first spin contaminant:
[...]
 Two-electron integral symmetry is turned off.
 Nuclear repulsion after empirical dispersion term =      229.5935928168 Hartrees.
 One-electron integrals computed using PRISM.
   1 Symmetry operations used in ECPInt.
 ECPInt:  NShTT=    3655 NPrTT=   11788 LenC2=    3473 LenP2D=    8592.
 LDataN:  DoStor=T MaxTD1= 6 Len=  172
 NBasis=   229 RedAO= T EigKep=  7.13D-05  NBF=   229
 NBsUse=   229 1.00D-06 EigRej= -1.00D+00 NBFU=   229
 Initial guess from the checkpoint file:  "/scratch/23935644/Gau-31853.chk"
 B after Tr=    -0.000239   -0.000266   -0.000814
         Rot=    1.000000    0.000238    0.000038   -0.000035 Ang=   0.03 deg.
 Initial guess <Sx>= 0.0000 <Sy>= 0.0000 <Sz>= 0.0000 <S**2>=-0.0000 S=-0.0000
 ExpMin= 9.52D-02 ExpMax= 2.70D+04 ExpMxC= 9.22D+02 IAcc=2 IRadAn=         4 AccDes= 0.00D+00
 Harris functional with IExCor= 4639 and IRadAn=       4 diagonalized for initial guess.
 HarFok:  IExCor= 4639 AccDes= 0.00D+00 IRadAn=         4 IDoV= 1 UseB2=F ITyADJ=14
 ICtDFT=  3500011 ScaDFX=  1.000000  1.000000  1.000000  1.000000
 FoFCou: FMM=F IPFlag=           0 FMFlag=      100000 FMFlg1=           0
         NFxFlg=           0 DoJE=T BraDBF=F KetDBF=T FulRan=T
         wScrn=  0.000000 ICntrl=       500 IOpCl=  0 I1Cent=   200000004 NGrid=           0
         NMat0=    1 NMatS0=      1 NMatT0=    0 NMatD0=    1 NMtDS0=    0 NMtDT0=    0
 Symmetry not used in FoFCou.
 Requested convergence on RMS density matrix=1.00D-08 within 128 cycles.
 Requested convergence on MAX density matrix=1.00D-06.
 Requested convergence on             energy=1.00D-06.
 No special actions if energy rises.
 Integral accuracy reduced to 1.0D-05 until final iterations.
 Initial convergence to 1.0D-05 achieved.  Increase integral accuracy.
 SCF Done:  E(UwB97XD) =  -371.550699282     A.U. after   13 cycles
            NFock= 13  Conv=0.67D-08     -V/T= 2.0038
 <Sx>= 0.0000 <Sy>= 0.0000 <Sz>= 0.0000 <S**2>=-0.0000 S=-0.0000
 <L.S>=  0.00000000000    
 Annihilation of the first spin contaminant:
 S**2 before annihilation    -0.0000,   after     0.0000
 DoSCS=F DFT=T ScalE2(SS,OS)=  1.000000  1.000000
 Range of M.O.s used for correlation:     1   229
 NBasis=   229 NAE=    25 NBE=    25 NFC=     0 NFV=     0
 NROrb=    229 NOA=    25 NOB=    25 NVA=   204 NVB=   204

 **** Warning!!: The largest alpha MO coefficient is  0.29623390D+02


 **** Warning!!: The largest beta MO coefficient is  0.29623390D+02

 Symmetrizing basis deriv contribution to polar:
 IMax=3 JMax=2 DiffMx= 0.00D+00
   1 Symmetry operations used in ECPInt.
 ECPInt:  NShTT=    3655 NPrTT=   11788 LenC2=    3473 LenP2D=    8592.
 LDataN:  DoStor=T MaxTD1= 7 Len=  274
 Calling FoFJK, ICntrl=      2147 FMM=F ISym2X=0 I1Cent= 0 IOpClX= 1 NMat=1 NMatS=1 NMatT=0.
 -------------------------------------------------------------------
 Center     Atomic                   Forces (Hartrees/Bohr)
 Number     Number              X              Y              Z
 -------------------------------------------------------------------
      1        7          -0.000429653   -0.000320587    0.001462092
      2        6          -0.000034414   -0.000089481   -0.000165950
      3        7           0.000089583   -0.000059477   -0.000309626
      4        7           0.000055427   -0.000029261    0.000179347
      5        8          -0.000104736   -0.000055479   -0.000133364
      6        7           0.000035737   -0.000056813    0.000409270
      7        6          -0.000038684   -0.000164830   -0.000331186
      8        1           0.000383865    0.000763138   -0.001195212
      9        1           0.000042874    0.000012789    0.000084630
 -------------------------------------------------------------------
 Cartesian Forces:  Max     0.001462092 RMS     0.000435251
 IRC-IRC-IRC-IRC-IRC-IRC-IRC-IRC-IRC-IRC-IRC-IRC-IRC-IRC-IRC-IRC-IRC-IRC
 Error in corrector energy =          -0.0000096321
 Magnitude of corrector gradient =     0.0012546070
 Magnitude of analytic gradient =      0.0022616284
 Magnitude of difference =             0.0026509259
 Angle between gradients (degrees)=   93.4187
 Pt 33 Step number  18 out of a maximum of  20
 Modified Bulirsch-Stoer Extrapolation Cycles:
    EPS =    0.000010000000000
      PEZero:  N= 2 I= 1 D=  2.83D-04 Err=  1.39D-02
      PEZero:  N= 3 I= 2 D=  2.83D-04 Err=  1.28D-04
      PEZero:  N= 3 I= 1 D=  5.66D-04 Err=  1.38D-02
      PEZero:  N= 4 I= 3 D=  1.42D-04 Err=  9.34D-05
      PEZero:  N= 4 I= 2 D=  4.25D-04 Err=  3.82D-06
      PEZero:  N= 4 I= 1 D=  7.08D-04 Err=  8.12D-05
 Maximum DWI energy   std dev =  0.000002907 at pt    -1
 Maximum DWI gradient std dev =  0.594368533 at pt    -1
 CORRECTOR INTEGRATION CONVERGENCE:
   Recorrection delta-x convergence threshold:    0.010000
   Delta-x Convergence NOT Met
 IRC-IRC-IRC-IRC-IRC-IRC-IRC-IRC-IRC-IRC-IRC-IRC-IRC-IRC-IRC-IRC-IRC-IRC
                          Input orientation:                          
 ---------------------------------------------------------------------
 Center     Atomic      Atomic             Coordinates (Angstroms)
 Number     Number       Type             X           Y           Z
 ---------------------------------------------------------------------
      1          7           0       -0.447885    2.372106    0.056751
      2          6           0       -1.030136    1.326928   -0.012013
      3          7           0        2.514722    0.216627    0.009143
      4          7           0        2.964928   -0.773433    0.019464
      5          8           0       -1.461259   -2.028371   -0.011154
      6          7           0       -0.849312   -0.988401   -0.056717
      7          6           0       -1.656305    0.158701    0.041177
      8          1           0       -0.217262    2.905170   -0.776031
      9          1           0       -2.732826    0.083729    0.135799
 ---------------------------------------------------------------------
                    Distance matrix (angstroms):
                    1          2          3          4          5
     1  N    0.000000
     2  C    1.198391   0.000000
     3  N    3.664069   3.714732   0.000000
     4  N    4.641455   4.513651   1.087663   0.000000
     5  O    4.516164   3.382884   4.566055   4.600755   0.000000
     6  N    3.386300   2.322810   3.573955   3.821053   1.207516
     7  C    2.521842   1.326527   4.171552   4.714355   2.196376
     8  H    1.015317   1.932701   3.912608   4.928617   5.145133
     9  H    3.234791   2.113421   5.250758   5.763043   2.469706
                    6          7          8          9
     6  N    0.000000
     7  C    1.405938   0.000000
     8  H    4.009587   3.206519   0.000000
     9  H    2.175810   1.083269   3.888447   0.000000
 Symmetry turned off by external request.
 Stoichiometry    C2H2N4O
 Framework group  C1[X(C2H2N4O)]
 Deg. of freedom    21
 Full point group                 C1      NOp   1
 Rotational constants (GHZ):           2.5524181           1.6162212           0.9924838
 Standard basis: def2TZVP (5D, 7F)
   229 basis functions,   373 primitive gaussians,   264 cartesian basis functions
    25 alpha electrons       25 beta electrons
       nuclear repulsion energy       229.5609577180 Hartrees.
 NAtoms=    9 NActive=    9 NUniq=    9 SFac= 1.00D+00 NAtFMM=   60 NAOKFM=F Big=F
 Integral buffers will be    131072 words long.
 Raffenetti 2 integral format.
 Two-electron integral symmetry is turned off.
 Nuclear repulsion after empirical dispersion term =      229.5587314909 Hartrees.
 One-electron integrals computed using PRISM.
   1 Symmetry operations used in ECPInt.
 ECPInt:  NShTT=    3655 NPrTT=   11788 LenC2=    3473 LenP2D=    8592.
 LDataN:  DoStor=T MaxTD1= 6 Len=  172
 NBasis=   229 RedAO= T EigKep=  7.15D-05  NBF=   229
 NBsUse=   229 1.00D-06 EigRej= -1.00D+00 NBFU=   229
 Initial guess from the checkpoint file:  "/scratch/23935644/Gau-31853.chk"
 B after Tr=     0.000239    0.000265    0.000814
         Rot=    1.000000   -0.000238   -0.000038    0.000035 Ang=  -0.03 deg.
 Initial guess <Sx>= 0.0000 <Sy>= 0.0000 <Sz>= 0.0000 <S**2>= 0.0000 S= 0.0000
 ExpMin= 9.52D-02 ExpMax= 2.70D+04 ExpMxC= 9.22D+02 IAcc=2 IRadAn=         4 AccDes= 0.00D+00
 Harris functional with IExCor= 4639 and IRadAn=       4 diagonalized for initial guess.
 HarFok:  IExCor= 4639 AccDes= 0.00D+00 IRadAn=         4 IDoV= 1 UseB2=F ITyADJ=14
 ICtDFT=  3500011 ScaDFX=  1.000000  1.000000  1.000000  1.000000
 FoFCou: FMM=F IPFlag=           0 FMFlag=      100000 FMFlg1=           0
         NFxFlg=           0 DoJE=T BraDBF=F KetDBF=T FulRan=T
         wScrn=  0.000000 ICntrl=       500 IOpCl=  0 I1Cent=   200000004 NGrid=           0
         NMat0=    1 NMatS0=      1 NMatT0=    0 NMatD0=    1 NMtDS0=    0 NMtDT0=    0
 Symmetry not used in FoFCou.
 Requested convergence on RMS density matrix=1.00D-08 within 128 cycles.
 Requested convergence on MAX density matrix=1.00D-06.
 Requested convergence on             energy=1.00D-06.
 No special actions if energy rises.
 Integral accuracy reduced to 1.0D-05 until final iterations.
 Initial convergence to 1.0D-05 achieved.  Increase integral accuracy.
 SCF Done:  E(UwB97XD) =  -371.550698699     A.U. after   13 cycles
            NFock= 13  Conv=0.57D-08     -V/T= 2.0039
 <Sx>= 0.0000 <Sy>= 0.0000 <Sz>= 0.0000 <S**2>=-0.0000 S=-0.0000
 <L.S>=  0.00000000000    
 Annihilation of the first spin contaminant:
 S**2 before annihilation    -0.0000,   after     0.0000
 DoSCS=F DFT=T ScalE2(SS,OS)=  1.000000  1.000000
 Range of M.O.s used for correlation:     1   229
 NBasis=   229 NAE=    25 NBE=    25 NFC=     0 NFV=     0
 NROrb=    229 NOA=    25 NOB=    25 NVA=   204 NVB=   204

 **** Warning!!: The largest alpha MO coefficient is  0.29623322D+02


 **** Warning!!: The largest beta MO coefficient is  0.29623322D+02

 Symmetrizing basis deriv contribution to polar:
 IMax=3 JMax=2 DiffMx= 0.00D+00
   1 Symmetry operations used in ECPInt.
 ECPInt:  NShTT=    3655 NPrTT=   11788 LenC2=    3473 LenP2D=    8592.
 LDataN:  DoStor=T MaxTD1= 7 Len=  274
 Calling FoFJK, ICntrl=      2147 FMM=F ISym2X=0 I1Cent= 0 IOpClX= 1 NMat=1 NMatS=1 NMatT=0.
 -------------------------------------------------------------------
 Center     Atomic                   Forces (Hartrees/Bohr)
 Number     Number              X              Y              Z
 -------------------------------------------------------------------
      1        7           0.000012450    0.000796719   -0.001518710
      2        6           0.000086722    0.000058146    0.000263225
      3        7           0.000091497   -0.000061122   -0.000311005
      4        7           0.000054567   -0.000027971    0.000180115
      5        8          -0.000095480    0.000036499   -0.000110942
      6        7           0.000074009   -0.000140319    0.000358171
      7        6           0.000094363    0.000133133   -0.000369585
      8        1          -0.000319120   -0.000808941    0.001490567
      9        1           0.000000993    0.000013856    0.000018164
 -------------------------------------------------------------------
 Cartesian Forces:  Max     0.001518710 RMS     0.000490071
 IRC-IRC-IRC-IRC-IRC-IRC-IRC-IRC-IRC-IRC-IRC-IRC-IRC-IRC-IRC-IRC-IRC-IRC
 Error in corrector energy =          -0.0000099127
 Magnitude of corrector gradient =     0.0012088463
 Magnitude of analytic gradient =      0.0025464853
 Magnitude of difference =             0.0029229079
 Angle between gradients (degrees)=   95.5693
 Pt 33 Step number  19 out of a maximum of  20
 Modified Bulirsch-Stoer Extrapolation Cycles:
    EPS =    0.000010000000000
      PEZero:  N= 2 I= 1 D=  2.83D-04 Err=  1.85D-02
      PEZero:  N= 3 I= 2 D=  2.83D-04 Err=  1.04D-03
      PEZero:  N= 3 I= 1 D=  5.66D-04 Err=  1.69D-02
      PEZero:  N= 4 I= 3 D=  1.42D-04 Err=  4.77D-05
      PEZero:  N= 4 I= 2 D=  4.25D-04 Err=  9.89D-04
      PEZero:  N= 5 I= 4 D=  1.42D-04 Err=  3.18D-05
      PEZero:  N= 5 I= 3 D=  2.83D-04 Err=  8.40D-08
      PEZero:  N= 5 I= 2 D=  5.66D-04 Err=  5.20D-04
 Maximum DWI energy   std dev =  0.000003974 at pt    -1
 Maximum DWI gradient std dev =  1.113163192 at pt    37
 CORRECTOR INTEGRATION CONVERGENCE:
   Recorrection delta-x convergence threshold:    0.010000
   Delta-x Convergence NOT Met
 IRC-IRC-IRC-IRC-IRC-IRC-IRC-IRC-IRC-IRC-IRC-IRC-IRC-IRC-IRC-IRC-IRC-IRC
                          Input orientation:                          
 ---------------------------------------------------------------------
 Center     Atomic      Atomic             Coordinates (Angstroms)
 Number     Number       Type             X           Y           Z
 ---------------------------------------------------------------------
      1          7           0       -0.448463    2.371482    0.053388
      2          6           0       -1.030341    1.326623   -0.012089
      3          7           0        2.514714    0.216631    0.009169
      4          7           0        2.964922   -0.773427    0.019448
      5          8           0       -1.461250   -2.028397   -0.011178
      6          7           0       -0.849307   -0.988437   -0.056644
      7          6           0       -1.656395    0.158571    0.041225
      8          1           0       -0.217625    2.905391   -0.773953
      9          1           0       -2.733056    0.083588    0.134688
 ---------------------------------------------------------------------
                    Distance matrix (angstroms):
                    1          2          3          4          5
     1  N    0.000000
     2  C    1.197747   0.000000
     3  N    3.664117   3.714828   0.000000
     4  N    4.641423   4.513683   1.087662   0.000000
     5  O    4.515400   3.382580   4.566055   4.600749   0.000000
     6  N    3.385533   2.322555   3.573955   3.821042   1.207501
     7  C    2.521155   1.326323   4.171636   4.714410   2.196283
     8  H    1.011355   1.932214   3.912593   4.928671   5.144968
     9  H    3.234259   2.113272   5.250956   5.763220   2.469666
                    6          7          8          9
     6  N    0.000000
     7  C    1.405915   0.000000
     8  H    4.009420   3.206181   0.000000
     9  H    2.175858   1.083308   3.887878   0.000000
 Symmetry turned off by external request.
 Stoichiometry    C2H2N4O
 Framework group  C1[X(C2H2N4O)]
 Deg. of freedom    21
 Full point group                 C1      NOp   1
 Rotational constants (GHZ):           2.5531527           1.6161830           0.9925472
 Standard basis: def2TZVP (5D, 7F)
   229 basis functions,   373 primitive gaussians,   264 cartesian basis functions
    25 alpha electrons       25 beta electrons
       nuclear repulsion energy       229.5958189947 Hartrees.
 NAtoms=    9 NActive=    9 NUniq=    9 SFac= 1.00D+00 NAtFMM=   60 NAOKFM=F Big=F
 Integral buffers will be    131072 words long.
 Raffenetti 2 integral format.
 Two-electron integral symmetry is turned off.
 Nuclear repulsion after empirical dispersion term =      229.5935927715 Hartrees.
 One-electron integrals computed using PRISM.
   1 Symmetry operations used in ECPInt.
 ECPInt:  NShTT=    3655 NPrTT=   11788 LenC2=    3473 LenP2D=    8592.
 LDataN:  DoStor=T MaxTD1= 6 Len=  172
 NBasis=   229 RedAO= T EigKep=  7.13D-05  NBF=   229
 NBsUse=   229 1.00D-06 EigRej= -1.00D+00 NBFU=   229
 Initial guess from the checkpoint file:  "/scratch/23935644/Gau-31853.chk"
 B after Tr=    -0.000239   -0.000266   -0.000814
         Rot=    1.000000    0.000238    0.000038   -0.000035 Ang=   0.03 deg.
 Initial guess <Sx>= 0.0000 <Sy>= 0.0000 <Sz>= 0.0000 <S**2>=-0.0000 S=-0.0000
 ExpMin= 9.52D-02 ExpMax= 2.70D+04 ExpMxC= 9.22D+02 IAcc=2 IRadAn=         4 AccDes= 0.00D+00
 Harris functional with IExCor= 4639 and IRadAn=       4 diagonalized for initial guess.
 HarFok:  IExCor= 4639 AccDes= 0.00D+00 IRadAn=         4 IDoV= 1 UseB2=F ITyADJ=14
 ICtDFT=  3500011 ScaDFX=  1.000000  1.000000  1.000000  1.000000
 FoFCou: FMM=F IPFlag=           0 FMFlag=      100000 FMFlg1=           0
         NFxFlg=           0 DoJE=T BraDBF=F KetDBF=T FulRan=T
         wScrn=  0.000000 ICntrl=       500 IOpCl=  0 I1Cent=   200000004 NGrid=           0
         NMat0=    1 NMatS0=      1 NMatT0=    0 NMatD0=    1 NMtDS0=    0 NMtDT0=    0
 Symmetry not used in FoFCou.
 Requested convergence on RMS density matrix=1.00D-08 within 128 cycles.
 Requested convergence on MAX density matrix=1.00D-06.
 Requested convergence on             energy=1.00D-06.
 No special actions if energy rises.
 Integral accuracy reduced to 1.0D-05 until final iterations.
 Initial convergence to 1.0D-05 achieved.  Increase integral accuracy.
 SCF Done:  E(UwB97XD) =  -371.550699282     A.U. after   13 cycles
            NFock= 13  Conv=0.67D-08     -V/T= 2.0038
 <Sx>= 0.0000 <Sy>= 0.0000 <Sz>= 0.0000 <S**2>=-0.0000 S=-0.0000
 <L.S>=  0.00000000000    
 Annihilation of the first spin contaminant:
 S**2 before annihilation    -0.0000,   after    -0.0000
 DoSCS=F DFT=T ScalE2(SS,OS)=  1.000000  1.000000
 Range of M.O.s used for correlation:     1   229
 NBasis=   229 NAE=    25 NBE=    25 NFC=     0 NFV=     0
 NROrb=    229 NOA=    25 NOB=    25 NVA=   204 NVB=   204

 **** Warning!!: The largest alpha MO coefficient is  0.29623390D+02


 **** Warning!!: The largest beta MO coefficient is  0.29623390D+02

 Symmetrizing basis deriv contribution to polar:
 IMax=3 JMax=2 DiffMx= 0.00D+00
   1 Symmetry operations used in ECPInt.
 ECPInt:  NShTT=    3655 NPrTT=   11788 LenC2=    3473 LenP2D=    8592.
 LDataN:  DoStor=T MaxTD1= 7 Len=  274
 Calling FoFJK, ICntrl=      2147 FMM=F ISym2X=0 I1Cent= 0 IOpClX= 1 NMat=1 NMatS=1 NMatT=0.
 -------------------------------------------------------------------
 Center     Atomic                   Forces (Hartrees/Bohr)
 Number     Number              X              Y              Z
 -------------------------------------------------------------------
      1        7          -0.000429658   -0.000320599    0.001462103
      2        6          -0.000034412   -0.000089478   -0.000165950
      3        7           0.000089582   -0.000059477   -0.000309626
      4        7           0.000055427   -0.000029261    0.000179347
      5        8          -0.000104736   -0.000055478   -0.000133364
      6        7           0.000035738   -0.000056812    0.000409271
      7        6          -0.000038685   -0.000164829   -0.000331187
      8        1           0.000383869    0.000763146   -0.001195223
      9        1           0.000042875    0.000012789    0.000084630
 -------------------------------------------------------------------
 Cartesian Forces:  Max     0.001462103 RMS     0.000435254
 IRC-IRC-IRC-IRC-IRC-IRC-IRC-IRC-IRC-IRC-IRC-IRC-IRC-IRC-IRC-IRC-IRC-IRC
 Error in corrector energy =          -0.0000096322
 Magnitude of corrector gradient =     0.0012546031
 Magnitude of analytic gradient =      0.0022616477
 Magnitude of difference =             0.0026509362
 Angle between gradients (degrees)=   93.4184
 Pt 33 Step number  20 out of a maximum of  20
 Modified Bulirsch-Stoer Extrapolation Cycles:
    EPS =    0.000010000000000
      PEZero:  N= 2 I= 1 D=  2.83D-04 Err=  1.39D-02
      PEZero:  N= 3 I= 2 D=  2.83D-04 Err=  1.28D-04
      PEZero:  N= 3 I= 1 D=  5.66D-04 Err=  1.38D-02
      PEZero:  N= 4 I= 3 D=  1.42D-04 Err=  9.34D-05
      PEZero:  N= 4 I= 2 D=  4.25D-04 Err=  3.82D-06
      PEZero:  N= 4 I= 1 D=  7.08D-04 Err=  8.12D-05
 Maximum DWI energy   std dev =  0.000002907 at pt    -1
 Maximum DWI gradient std dev =  0.594357462 at pt    -1
 CORRECTOR INTEGRATION CONVERGENCE:
   Recorrection delta-x convergence threshold:    0.010000
   Delta-x Convergence NOT Met
 Maximum number of corrector steps exceded.
 Error termination via Lnk1e in /software/kemi/g16/avx2/g16/l123.exe at Thu Jun 24 01:45:37 2021.
 Job cpu time:       0 days 11 hours 34 minutes 38.1 seconds.
 Elapsed time:       0 days  2 hours 56 minutes 13.0 seconds.
 File lengths (MBytes):  RWF=     87 Int=      0 D2E=      0 Chk=      7 Scr=      1
