 Entering Gaussian System, Link 0=/software/kemi/g16/avx2/g16/g16
 Initial command:
 /software/kemi/g16/avx2/g16/l1.exe "/scratch/23935644/Gau-23938.inp" -scrdir="/scratch/23935644/"
 Entering Link 1 = /software/kemi/g16/avx2/g16/l1.exe PID=     23939.
  
 Copyright (c) 1988,1990,1992,1993,1995,1998,2003,2009,2016,
            Gaussian, Inc.  All Rights Reserved.
  
 This is part of the Gaussian(R) 16 program.  It is based on
 the Gaussian(R) 09 system (copyright 2009, Gaussian, Inc.),
 the Gaussian(R) 03 system (copyright 2003, Gaussian, Inc.),
 the Gaussian(R) 98 system (copyright 1998, Gaussian, Inc.),
 the Gaussian(R) 94 system (copyright 1995, Gaussian, Inc.),
 the Gaussian 92(TM) system (copyright 1992, Gaussian, Inc.),
 the Gaussian 90(TM) system (copyright 1990, Gaussian, Inc.),
 the Gaussian 88(TM) system (copyright 1988, Gaussian, Inc.),
 the Gaussian 86(TM) system (copyright 1986, Carnegie Mellon
 University), and the Gaussian 82(TM) system (copyright 1983,
 Carnegie Mellon University). Gaussian is a federally registered
 trademark of Gaussian, Inc.
  
 This software contains proprietary and confidential information,
 including trade secrets, belonging to Gaussian, Inc.
  
 This software is provided under written license and may be
 used, copied, transmitted, or stored only in accord with that
 written license.
  
 The following legend is applicable only to US Government
 contracts under FAR:
  
                    RESTRICTED RIGHTS LEGEND
  
 Use, reproduction and disclosure by the US Government is
 subject to restrictions as set forth in subparagraphs (a)
 and (c) of the Commercial Computer Software - Restricted
 Rights clause in FAR 52.227-19.
  
 Gaussian, Inc.
 340 Quinnipiac St., Bldg. 40, Wallingford CT 06492
  
  
 ---------------------------------------------------------------
 Warning -- This program may not be used in any manner that
 competes with the business of Gaussian, Inc. or will provide
 assistance to any competitor of Gaussian, Inc.  The licensee
 of this program is prohibited from giving any competitor of
 Gaussian, Inc. access to this program.  By using this program,
 the user acknowledges that Gaussian, Inc. is engaged in the
 business of creating and licensing software in the field of
 computational chemistry and represents and warrants to the
 licensee that it is not a competitor of Gaussian, Inc. and that
 it will not use this program in any manner prohibited above.
 ---------------------------------------------------------------
  

 Cite this work as:
 Gaussian 16, Revision A.03,
 M. J. Frisch, G. W. Trucks, H. B. Schlegel, G. E. Scuseria, 
 M. A. Robb, J. R. Cheeseman, G. Scalmani, V. Barone, 
 G. A. Petersson, H. Nakatsuji, X. Li, M. Caricato, A. V. Marenich, 
 J. Bloino, B. G. Janesko, R. Gomperts, B. Mennucci, H. P. Hratchian, 
 J. V. Ortiz, A. F. Izmaylov, J. L. Sonnenberg, D. Williams-Young, 
 F. Ding, F. Lipparini, F. Egidi, J. Goings, B. Peng, A. Petrone, 
 T. Henderson, D. Ranasinghe, V. G. Zakrzewski, J. Gao, N. Rega, 
 G. Zheng, W. Liang, M. Hada, M. Ehara, K. Toyota, R. Fukuda, 
 J. Hasegawa, M. Ishida, T. Nakajima, Y. Honda, O. Kitao, H. Nakai, 
 T. Vreven, K. Throssell, J. A. Montgomery, Jr., J. E. Peralta, 
 F. Ogliaro, M. J. Bearpark, J. J. Heyd, E. N. Brothers, K. N. Kudin, 
 V. N. Staroverov, T. A. Keith, R. Kobayashi, J. Normand, 
 K. Raghavachari, A. P. Rendell, J. C. Burant, S. S. Iyengar, 
 J. Tomasi, M. Cossi, J. M. Millam, M. Klene, C. Adamo, R. Cammi, 
 J. W. Ochterski, R. L. Martin, K. Morokuma, O. Farkas, 
 J. B. Foresman, and D. J. Fox, Gaussian, Inc., Wallingford CT, 2016.
 
 ******************************************
 Gaussian 16:  ES64L-G16RevA.03 25-Dec-2016
                23-Jun-2021 
 ******************************************
 %nprocshared=4
 Will use up to    4 processors via shared memory.
 %mem=8GB
 ---------------------
 #opt UwB97XD/Def2TZVP
 ---------------------
 1/18=20,19=15,26=3,38=1/1,3;
 2/9=110,12=2,17=6,18=5,40=1/2;
 3/5=44,7=101,11=2,25=1,30=1,71=1,74=-58,116=2/1,2,3;
 4//1;
 5/5=2,38=5/2;
 6/7=2,8=2,9=2,10=2,28=1/1;
 7//1,2,3,16;
 1/18=20,19=15,26=3/3(2);
 2/9=110/2;
 99//99;
 2/9=110/2;
 3/5=44,7=101,11=2,25=1,30=1,71=1,74=-58,116=2/1,2,3;
 4/5=5,16=3,69=1/1;
 5/5=2,38=5/2;
 7//1,2,3,16;
 1/18=20,19=15,26=3/3(-5);
 2/9=110/2;
 6/7=2,8=2,9=2,10=2,19=2,28=1/1;
 99/9=1/99;
 ---------------
 something title
 ---------------
 Symbolic Z-matrix:
 Charge =  0 Multiplicity = 1
 N                     0.4653    1.79944  -0.00003 
 C                     0.32771   0.64175   0.00002 
 N                    -2.78184  -0.61741   0. 
 N                    -3.69049  -0.01958   0. 
 O                     2.82546  -0.17631   0. 
 N                     1.96154  -1.02523  -0.00001 
 C                     0.60756  -0.67444   0.00001 
 H                     0.38831   2.79166   0.00022 
 H                    -0.11392  -1.46895  -0.00001 
 
 Add virtual bond connecting atoms H9         and N3         Dist= 5.29D+00.

 GradGradGradGradGradGradGradGradGradGradGradGradGradGradGradGradGradGrad
 Berny optimization.
 Initialization pass.
                           ----------------------------
                           !    Initial Parameters    !
                           ! (Angstroms and Degrees)  !
 --------------------------                            --------------------------
 ! Name  Definition              Value          Derivative Info.                !
 --------------------------------------------------------------------------------
 ! R1    R(1,2)                  1.1658         estimate D2E/DX2                !
 ! R2    R(1,8)                  0.9952         estimate D2E/DX2                !
 ! R3    R(2,7)                  1.3456         estimate D2E/DX2                !
 ! R4    R(3,4)                  1.0877         estimate D2E/DX2                !
 ! R5    R(3,9)                  2.8005         estimate D2E/DX2                !
 ! R6    R(5,6)                  1.2112         estimate D2E/DX2                !
 ! R7    R(6,7)                  1.3987         estimate D2E/DX2                !
 ! R8    R(7,9)                  1.0732         estimate D2E/DX2                !
 ! A1    A(1,2,7)              161.2187         estimate D2E/DX2                !
 ! A2    A(4,3,9)              164.3597         estimate D2E/DX2                !
 ! A3    A(5,6,7)              120.9769         estimate D2E/DX2                !
 ! A4    A(2,7,6)              116.5284         estimate D2E/DX2                !
 ! A5    A(2,7,9)              125.7544         estimate D2E/DX2                !
 ! A6    A(6,7,9)              117.7171         estimate D2E/DX2                !
 ! A7    A(3,9,7)              114.5401         estimate D2E/DX2                !
 ! A8    L(2,1,8,4,-1)         168.7854         estimate D2E/DX2                !
 ! A9    L(2,1,8,4,-2)         179.982          estimate D2E/DX2                !
 ! D1    D(1,2,7,6)              0.0082         estimate D2E/DX2                !
 ! D2    D(1,2,7,9)           -179.9901         estimate D2E/DX2                !
 ! D3    D(4,3,9,7)              0.002          estimate D2E/DX2                !
 ! D4    D(5,6,7,2)              0.001          estimate D2E/DX2                !
 ! D5    D(5,6,7,9)            179.9994         estimate D2E/DX2                !
 ! D6    D(2,7,9,3)             -0.001          estimate D2E/DX2                !
 ! D7    D(6,7,9,3)           -179.9992         estimate D2E/DX2                !
 --------------------------------------------------------------------------------
 Trust Radius=3.00D-01 FncErr=1.00D-07 GrdErr=1.00D-06 EigMax=2.50D+02 EigMin=1.00D-04
 Number of steps in this run=     34 maximum allowed number of steps=    100.
 GradGradGradGradGradGradGradGradGradGradGradGradGradGradGradGradGradGrad

                          Input orientation:                          
 ---------------------------------------------------------------------
 Center     Atomic      Atomic             Coordinates (Angstroms)
 Number     Number       Type             X           Y           Z
 ---------------------------------------------------------------------
      1          7           0        0.465300    1.799440   -0.000030
      2          6           0        0.327710    0.641750    0.000020
      3          7           0       -2.781840   -0.617410    0.000000
      4          7           0       -3.690490   -0.019580    0.000000
      5          8           0        2.825460   -0.176310    0.000000
      6          7           0        1.961540   -1.025230   -0.000010
      7          6           0        0.607560   -0.674440    0.000010
      8          1           0        0.388310    2.791660    0.000220
      9          1           0       -0.113920   -1.468950   -0.000010
 ---------------------------------------------------------------------
                    Distance matrix (angstroms):
                    1          2          3          4          5
     1  N    0.000000
     2  C    1.165838   0.000000
     3  N    4.047849   3.354815   0.000000
     4  N    4.536455   4.072258   1.087679   0.000000
     5  O    3.077977   2.628303   5.624623   6.517835   0.000000
     6  N    3.196482   2.334143   4.760879   5.740799   1.211207
     7  C    2.477967   1.345612   3.389880   4.347652   2.273151
     8  H    0.995203   2.150764   4.655278   4.953754   3.840384
     9  H    3.319318   2.156407   2.800521   3.859084   3.211055
                    6          7          8          9
     6  N    0.000000
     7  C    1.398683   0.000000
     8  H    4.128402   3.473027   0.000000
     9  H    2.122362   1.073210   4.290109   0.000000
 Stoichiometry    C2H2N4O
 Framework group  C1[X(C2H2N4O)]
 Deg. of freedom    21
 Full point group                 C1      NOp   1
 Largest Abelian subgroup         C1      NOp   1
 Largest concise Abelian subgroup C1      NOp   1
                         Standard orientation:                         
 ---------------------------------------------------------------------
 Center     Atomic      Atomic             Coordinates (Angstroms)
 Number     Number       Type             X           Y           Z
 ---------------------------------------------------------------------
      1          7           0        0.465317    1.785014   -0.000032
      2          6           0        0.325496    0.627591    0.000018
      3          7           0       -2.786477   -0.625571   -0.000002
      4          7           0       -3.693972   -0.025990   -0.000002
      5          8           0        2.821664   -0.195284   -0.000002
      6          7           0        1.956108   -1.042536   -0.000012
      7          6           0        0.602807   -0.689136    0.000008
      8          1           0        0.390241    2.777380    0.000218
      9          1           0       -0.120203   -1.482254   -0.000012
 ---------------------------------------------------------------------
 Rotational constants (GHZ):           5.8540494           1.0322960           0.8775499
 Standard basis: def2TZVP (5D, 7F)
 There are   264 symmetry adapted cartesian basis functions of A   symmetry.
 There are   229 symmetry adapted basis functions of A   symmetry.
   229 basis functions,   373 primitive gaussians,   264 cartesian basis functions
    25 alpha electrons       25 beta electrons
       nuclear repulsion energy       230.8098919256 Hartrees.
 NAtoms=    9 NActive=    9 NUniq=    9 SFac= 1.00D+00 NAtFMM=   60 NAOKFM=F Big=F
 Integral buffers will be    131072 words long.
 Raffenetti 2 integral format.
 Two-electron integral symmetry is turned on.
 Nuclear repulsion after empirical dispersion term =      230.8076055609 Hartrees.
 One-electron integrals computed using PRISM.
   1 Symmetry operations used in ECPInt.
 ECPInt:  NShTT=    3655 NPrTT=   11788 LenC2=    3432 LenP2D=    8574.
 LDataN:  DoStor=T MaxTD1= 6 Len=  172
 NBasis=   229 RedAO= T EigKep=  8.93D-05  NBF=   229
 NBsUse=   229 1.00D-06 EigRej= -1.00D+00 NBFU=   229
 ExpMin= 9.52D-02 ExpMax= 2.70D+04 ExpMxC= 9.22D+02 IAcc=3 IRadAn=         5 AccDes= 0.00D+00
 Harris functional with IExCor= 4639 and IRadAn=       5 diagonalized for initial guess.
 HarFok:  IExCor= 4639 AccDes= 0.00D+00 IRadAn=         5 IDoV= 1 UseB2=F ITyADJ=14
 ICtDFT=  3500011 ScaDFX=  1.000000  1.000000  1.000000  1.000000
 FoFCou: FMM=F IPFlag=           0 FMFlag=      100000 FMFlg1=           0
         NFxFlg=           0 DoJE=T BraDBF=F KetDBF=T FulRan=T
         wScrn=  0.000000 ICntrl=       500 IOpCl=  0 I1Cent=   200000004 NGrid=           0
         NMat0=    1 NMatS0=      1 NMatT0=    0 NMatD0=    1 NMtDS0=    0 NMtDT0=    0
 Petite list used in FoFCou.
 Initial guess <Sx>= 0.0000 <Sy>= 0.0000 <Sz>= 0.0000 <S**2>=-0.0000 S=-0.0000
 Requested convergence on RMS density matrix=1.00D-08 within 128 cycles.
 Requested convergence on MAX density matrix=1.00D-06.
 Requested convergence on             energy=1.00D-06.
 No special actions if energy rises.
 Integral accuracy reduced to 1.0D-05 until final iterations.
 Initial convergence to 1.0D-05 achieved.  Increase integral accuracy.
 SCF Done:  E(UwB97XD) =  -371.535492315     A.U. after   18 cycles
            NFock= 18  Conv=0.53D-08     -V/T= 2.0039
 <Sx>= 0.0000 <Sy>= 0.0000 <Sz>= 0.0000 <S**2>=-0.0000 S=-0.0000
 <L.S>=  0.00000000000    
 Annihilation of the first spin contaminant:
 S**2 before annihilation    -0.0000,   after     0.0000

 **********************************************************************

            Population analysis using the SCF density.

 **********************************************************************

 Orbital symmetries:
 Alpha Orbitals:
       Occupied  (A) (A) (A) (A) (A) (A) (A) (A) (A) (A) (A) (A)
                 (A) (A) (A) (A) (A) (A) (A) (A) (A) (A) (A) (A)
                 (A)
       Virtual   (A) (A) (A) (A) (A) (A) (A) (A) (A) (A) (A) (A)
                 (A) (A) (A) (A) (A) (A) (A) (A) (A) (A) (A) (A)
                 (A) (A) (A) (A) (A) (A) (A) (A) (A) (A) (A) (A)
                 (A) (A) (A) (A) (A) (A) (A) (A) (A) (A) (A) (A)
                 (A) (A) (A) (A) (A) (A) (A) (A) (A) (A) (A) (A)
                 (A) (A) (A) (A) (A) (A) (A) (A) (A) (A) (A) (A)
                 (A) (A) (A) (A) (A) (A) (A) (A) (A) (A) (A) (A)
                 (A) (A) (A) (A) (A) (A) (A) (A) (A) (A) (A) (A)
                 (A) (A) (A) (A) (A) (A) (A) (A) (A) (A) (A) (A)
                 (A) (A) (A) (A) (A) (A) (A) (A) (A) (A) (A) (A)
                 (A) (A) (A) (A) (A) (A) (A) (A) (A) (A) (A) (A)
                 (A) (A) (A) (A) (A) (A) (A) (A) (A) (A) (A) (A)
                 (A) (A) (A) (A) (A) (A) (A) (A) (A) (A) (A) (A)
                 (A) (A) (A) (A) (A) (A) (A) (A) (A) (A) (A) (A)
                 (A) (A) (A) (A) (A) (A) (A) (A) (A) (A) (A) (A)
                 (A) (A) (A) (A) (A) (A) (A) (A) (A) (A) (A) (A)
                 (A) (A) (A) (A) (A) (A) (A) (A) (A) (A) (A) (A)
 Beta  Orbitals:
       Occupied  (A) (A) (A) (A) (A) (A) (A) (A) (A) (A) (A) (A)
                 (A) (A) (A) (A) (A) (A) (A) (A) (A) (A) (A) (A)
                 (A)
       Virtual   (A) (A) (A) (A) (A) (A) (A) (A) (A) (A) (A) (A)
                 (A) (A) (A) (A) (A) (A) (A) (A) (A) (A) (A) (A)
                 (A) (A) (A) (A) (A) (A) (A) (A) (A) (A) (A) (A)
                 (A) (A) (A) (A) (A) (A) (A) (A) (A) (A) (A) (A)
                 (A) (A) (A) (A) (A) (A) (A) (A) (A) (A) (A) (A)
                 (A) (A) (A) (A) (A) (A) (A) (A) (A) (A) (A) (A)
                 (A) (A) (A) (A) (A) (A) (A) (A) (A) (A) (A) (A)
                 (A) (A) (A) (A) (A) (A) (A) (A) (A) (A) (A) (A)
                 (A) (A) (A) (A) (A) (A) (A) (A) (A) (A) (A) (A)
                 (A) (A) (A) (A) (A) (A) (A) (A) (A) (A) (A) (A)
                 (A) (A) (A) (A) (A) (A) (A) (A) (A) (A) (A) (A)
                 (A) (A) (A) (A) (A) (A) (A) (A) (A) (A) (A) (A)
                 (A) (A) (A) (A) (A) (A) (A) (A) (A) (A) (A) (A)
                 (A) (A) (A) (A) (A) (A) (A) (A) (A) (A) (A) (A)
                 (A) (A) (A) (A) (A) (A) (A) (A) (A) (A) (A) (A)
                 (A) (A) (A) (A) (A) (A) (A) (A) (A) (A) (A) (A)
                 (A) (A) (A) (A) (A) (A) (A) (A) (A) (A) (A) (A)
 The electronic state is 1-A.
 Alpha  occ. eigenvalues --  -19.26076 -14.55059 -14.54858 -14.52880 -14.50912
 Alpha  occ. eigenvalues --  -10.40935 -10.31222  -1.24819  -1.22768  -1.09259
 Alpha  occ. eigenvalues --   -0.91835  -0.79459  -0.73434  -0.66109  -0.60721
 Alpha  occ. eigenvalues --   -0.58624  -0.57311  -0.57302  -0.54500  -0.53722
 Alpha  occ. eigenvalues --   -0.50055  -0.49133  -0.47748  -0.32211  -0.28651
 Alpha virt. eigenvalues --    0.00932   0.01295   0.04326   0.04805   0.09228
 Alpha virt. eigenvalues --    0.15402   0.15617   0.18381   0.24355   0.26959
 Alpha virt. eigenvalues --    0.27500   0.29296   0.31537   0.33055   0.35055
 Alpha virt. eigenvalues --    0.35844   0.36680   0.37258   0.41599   0.43783
 Alpha virt. eigenvalues --    0.44296   0.46256   0.46494   0.48815   0.50063
 Alpha virt. eigenvalues --    0.50346   0.52768   0.53517   0.53776   0.55597
 Alpha virt. eigenvalues --    0.58695   0.60484   0.61281   0.63593   0.65694
 Alpha virt. eigenvalues --    0.67832   0.68705   0.71273   0.77564   0.79231
 Alpha virt. eigenvalues --    0.82200   0.84716   0.88934   0.89145   0.90308
 Alpha virt. eigenvalues --    0.90933   0.93232   0.98988   1.06201   1.07525
 Alpha virt. eigenvalues --    1.14748   1.16584   1.17793   1.22297   1.24780
 Alpha virt. eigenvalues --    1.25726   1.28620   1.31461   1.33952   1.34025
 Alpha virt. eigenvalues --    1.35878   1.42093   1.43038   1.44864   1.45070
 Alpha virt. eigenvalues --    1.52866   1.54361   1.55221   1.58417   1.61983
 Alpha virt. eigenvalues --    1.65791   1.73239   1.74022   1.74335   1.75845
 Alpha virt. eigenvalues --    1.80548   1.82065   1.83288   1.86891   1.97186
 Alpha virt. eigenvalues --    2.00475   2.03252   2.04288   2.09901   2.10967
 Alpha virt. eigenvalues --    2.13200   2.13626   2.15087   2.16380   2.17523
 Alpha virt. eigenvalues --    2.19601   2.25925   2.27855   2.30868   2.33438
 Alpha virt. eigenvalues --    2.34937   2.37139   2.47287   2.52724   2.58827
 Alpha virt. eigenvalues --    2.64523   2.65487   2.67342   2.67908   2.69042
 Alpha virt. eigenvalues --    2.75956   2.81686   2.84294   2.85743   2.88679
 Alpha virt. eigenvalues --    2.88762   2.97723   3.00117   3.02461   3.03522
 Alpha virt. eigenvalues --    3.04080   3.10307   3.11910   3.19393   3.22118
 Alpha virt. eigenvalues --    3.32792   3.33584   3.37074   3.41822   3.53178
 Alpha virt. eigenvalues --    3.53660   3.53929   3.55531   3.66762   3.66852
 Alpha virt. eigenvalues --    3.68932   3.70454   3.71417   3.79810   3.80291
 Alpha virt. eigenvalues --    3.86385   3.96840   3.96917   3.97938   4.01115
 Alpha virt. eigenvalues --    4.06765   4.13681   4.15845   4.15887   4.16226
 Alpha virt. eigenvalues --    4.22589   4.27501   4.33430   4.40531   4.42451
 Alpha virt. eigenvalues --    4.43728   4.55795   4.56903   4.56930   4.58518
 Alpha virt. eigenvalues --    4.59668   4.60743   4.61101   4.65771   4.71388
 Alpha virt. eigenvalues --    4.76929   4.78422   4.83034   4.86349   5.00036
 Alpha virt. eigenvalues --    5.00768   5.00801   5.01283   5.08110   5.08129
 Alpha virt. eigenvalues --    5.09152   5.10499   5.15098   5.20343   5.28683
 Alpha virt. eigenvalues --    5.28761   5.37042   5.44714   5.55175   5.67119
 Alpha virt. eigenvalues --    5.72934   5.78525   5.84582   5.87534   6.27336
 Alpha virt. eigenvalues --    6.35127   6.36287   6.38299   6.42590   6.44103
 Alpha virt. eigenvalues --    6.57659   6.61581   6.68552   6.98468   7.12028
 Alpha virt. eigenvalues --    7.22406   7.50990  22.74390  23.28589  31.34619
 Alpha virt. eigenvalues --   32.16546  32.23046  32.30327  44.00027
  Beta  occ. eigenvalues --  -19.26076 -14.55059 -14.54858 -14.52880 -14.50912
  Beta  occ. eigenvalues --  -10.40935 -10.31222  -1.24819  -1.22768  -1.09259
  Beta  occ. eigenvalues --   -0.91835  -0.79459  -0.73434  -0.66109  -0.60721
  Beta  occ. eigenvalues --   -0.58624  -0.57311  -0.57302  -0.54500  -0.53722
  Beta  occ. eigenvalues --   -0.50055  -0.49133  -0.47748  -0.32211  -0.28651
  Beta virt. eigenvalues --    0.00932   0.01295   0.04326   0.04805   0.09228
  Beta virt. eigenvalues --    0.15402   0.15617   0.18381   0.24355   0.26959
  Beta virt. eigenvalues --    0.27500   0.29296   0.31537   0.33055   0.35055
  Beta virt. eigenvalues --    0.35844   0.36680   0.37258   0.41599   0.43783
  Beta virt. eigenvalues --    0.44296   0.46256   0.46494   0.48815   0.50063
  Beta virt. eigenvalues --    0.50346   0.52768   0.53517   0.53776   0.55597
  Beta virt. eigenvalues --    0.58695   0.60484   0.61281   0.63593   0.65694
  Beta virt. eigenvalues --    0.67832   0.68705   0.71273   0.77564   0.79231
  Beta virt. eigenvalues --    0.82200   0.84716   0.88934   0.89145   0.90308
  Beta virt. eigenvalues --    0.90933   0.93232   0.98988   1.06201   1.07525
  Beta virt. eigenvalues --    1.14748   1.16584   1.17793   1.22297   1.24780
  Beta virt. eigenvalues --    1.25726   1.28620   1.31461   1.33952   1.34025
  Beta virt. eigenvalues --    1.35878   1.42093   1.43038   1.44864   1.45070
  Beta virt. eigenvalues --    1.52866   1.54361   1.55221   1.58417   1.61983
  Beta virt. eigenvalues --    1.65791   1.73239   1.74022   1.74335   1.75845
  Beta virt. eigenvalues --    1.80548   1.82065   1.83288   1.86891   1.97186
  Beta virt. eigenvalues --    2.00475   2.03252   2.04288   2.09901   2.10967
  Beta virt. eigenvalues --    2.13200   2.13626   2.15087   2.16380   2.17523
  Beta virt. eigenvalues --    2.19601   2.25925   2.27855   2.30868   2.33438
  Beta virt. eigenvalues --    2.34937   2.37139   2.47287   2.52724   2.58827
  Beta virt. eigenvalues --    2.64523   2.65487   2.67342   2.67908   2.69042
  Beta virt. eigenvalues --    2.75956   2.81686   2.84294   2.85743   2.88679
  Beta virt. eigenvalues --    2.88762   2.97723   3.00117   3.02461   3.03522
  Beta virt. eigenvalues --    3.04080   3.10307   3.11910   3.19393   3.22118
  Beta virt. eigenvalues --    3.32792   3.33584   3.37074   3.41822   3.53178
  Beta virt. eigenvalues --    3.53660   3.53929   3.55531   3.66762   3.66852
  Beta virt. eigenvalues --    3.68932   3.70454   3.71417   3.79810   3.80291
  Beta virt. eigenvalues --    3.86385   3.96840   3.96917   3.97938   4.01115
  Beta virt. eigenvalues --    4.06765   4.13681   4.15845   4.15887   4.16226
  Beta virt. eigenvalues --    4.22589   4.27501   4.33430   4.40531   4.42451
  Beta virt. eigenvalues --    4.43728   4.55795   4.56903   4.56930   4.58518
  Beta virt. eigenvalues --    4.59668   4.60743   4.61101   4.65771   4.71388
  Beta virt. eigenvalues --    4.76929   4.78422   4.83034   4.86349   5.00036
  Beta virt. eigenvalues --    5.00768   5.00801   5.01283   5.08110   5.08129
  Beta virt. eigenvalues --    5.09152   5.10499   5.15098   5.20343   5.28683
  Beta virt. eigenvalues --    5.28761   5.37042   5.44714   5.55175   5.67119
  Beta virt. eigenvalues --    5.72934   5.78525   5.84582   5.87534   6.27336
  Beta virt. eigenvalues --    6.35127   6.36287   6.38299   6.42590   6.44103
  Beta virt. eigenvalues --    6.57659   6.61581   6.68552   6.98468   7.12028
  Beta virt. eigenvalues --    7.22406   7.50990  22.74390  23.28589  31.34619
  Beta virt. eigenvalues --   32.16546  32.23046  32.30327  44.00027
          Condensed to atoms (all electrons):
               1          2          3          4          5          6
     1  N    6.114557   0.735268  -0.000706  -0.000352   0.000002  -0.003784
     2  C    0.735268   4.899967  -0.000398   0.000586   0.027315  -0.047570
     3  N   -0.000706  -0.000398   6.327302   0.658331   0.000007  -0.000046
     4  N   -0.000352   0.000586   0.658331   6.353296   0.000001  -0.000011
     5  O    0.000002   0.027315   0.000007   0.000001   8.182042   0.235929
     6  N   -0.003784  -0.047570  -0.000046  -0.000011   0.235929   6.401432
     7  C   -0.032600   0.347591   0.000376   0.000298  -0.118827   0.379851
     8  H    0.379427  -0.031316   0.000005  -0.000004  -0.000106  -0.000032
     9  H    0.001490  -0.056130   0.001930  -0.000004   0.002564  -0.030375
               7          8          9
     1  N   -0.032600   0.379427   0.001490
     2  C    0.347591  -0.031316  -0.056130
     3  N    0.000376   0.000005   0.001930
     4  N    0.000298  -0.000004  -0.000004
     5  O   -0.118827  -0.000106   0.002564
     6  N    0.379851  -0.000032  -0.030375
     7  C    5.166142   0.002080   0.441755
     8  H    0.002080   0.307505  -0.000082
     9  H    0.441755  -0.000082   0.462827
          Atomic-Atomic Spin Densities.
               1          2          3          4          5          6
     1  N    0.000000  -0.000000  -0.000000   0.000000  -0.000000   0.000000
     2  C   -0.000000   0.000000  -0.000000  -0.000000  -0.000000   0.000000
     3  N   -0.000000  -0.000000   0.000000  -0.000000   0.000000   0.000000
     4  N    0.000000  -0.000000  -0.000000   0.000000  -0.000000   0.000000
     5  O   -0.000000  -0.000000   0.000000  -0.000000   0.000000  -0.000000
     6  N    0.000000   0.000000   0.000000   0.000000  -0.000000   0.000000
     7  C   -0.000000  -0.000000   0.000000   0.000000   0.000000  -0.000000
     8  H    0.000000  -0.000000   0.000000   0.000000  -0.000000   0.000000
     9  H    0.000000  -0.000000   0.000000  -0.000000   0.000000  -0.000000
               7          8          9
     1  N   -0.000000   0.000000   0.000000
     2  C   -0.000000  -0.000000  -0.000000
     3  N    0.000000   0.000000   0.000000
     4  N    0.000000   0.000000  -0.000000
     5  O    0.000000  -0.000000   0.000000
     6  N   -0.000000   0.000000  -0.000000
     7  C    0.000000   0.000000   0.000000
     8  H    0.000000   0.000000   0.000000
     9  H    0.000000   0.000000   0.000000
 Mulliken charges and spin densities:
               1          2
     1  N   -0.193303  -0.000000
     2  C    0.124687   0.000000
     3  N    0.013199   0.000000
     4  N   -0.012143  -0.000000
     5  O   -0.328926   0.000000
     6  N    0.064606   0.000000
     7  C   -0.186666  -0.000000
     8  H    0.342522   0.000000
     9  H    0.176024   0.000000
 Sum of Mulliken charges =  -0.00000  -0.00000
 Mulliken charges and spin densities with hydrogens summed into heavy atoms:
               1          2
     1  N    0.149219  -0.000000
     2  C    0.124687   0.000000
     3  N    0.013199   0.000000
     4  N   -0.012143  -0.000000
     5  O   -0.328926   0.000000
     6  N    0.064606   0.000000
     7  C   -0.010642  -0.000000
 Electronic spatial extent (au):  <R**2>=           1134.4250
 Charge=             -0.0000 electrons
 Dipole moment (field-independent basis, Debye):
    X=             -4.0953    Y=              3.3943    Z=              0.0005  Tot=              5.3191
 Quadrupole moment (field-independent basis, Debye-Ang):
   XX=            -50.6354   YY=            -29.3678   ZZ=            -38.8290
   XY=              4.1496   XZ=              0.0003   YZ=              0.0015
 Traceless Quadrupole moment (field-independent basis, Debye-Ang):
   XX=            -11.0247   YY=             10.2429   ZZ=              0.7817
   XY=              4.1496   XZ=              0.0003   YZ=              0.0015
 Octapole moment (field-independent basis, Debye-Ang**2):
  XXX=            -30.4139  YYY=             37.9170  ZZZ=              0.0003  XYY=             -1.2672
  XXY=              1.2733  XXZ=              0.0003  XZZ=             -0.0138  YZZ=              0.5528
  YYZ=              0.0043  XYZ=              0.0005
 Hexadecapole moment (field-independent basis, Debye-Ang**3):
 XXXX=          -1262.5380 YYYY=           -143.1748 ZZZZ=            -36.8106 XXXY=             37.2033
 XXXZ=              0.0010 YYYX=             25.0719 YYYZ=              0.0114 ZZZX=              0.0003
 ZZZY=              0.0003 XXYY=           -235.0957 XXZZ=           -185.8604 YYZZ=            -49.0520
 XXYZ=             -0.0000 YYXZ=              0.0020 ZZXY=              0.5326
 N-N= 2.308076055609D+02 E-N=-1.331595156943D+03  KE= 3.701073043900D+02
                          Isotropic Fermi Contact Couplings
        Atom                 a.u.       MegaHertz       Gauss      10(-4) cm-1
     1  N(14)             -0.00000      -0.00000      -0.00000      -0.00000
     2  C(13)              0.00000       0.00000       0.00000       0.00000
     3  N(14)              0.00000       0.00000       0.00000       0.00000
     4  N(14)             -0.00000      -0.00000      -0.00000      -0.00000
     5  O(17)              0.00000      -0.00000      -0.00000      -0.00000
     6  N(14)             -0.00000      -0.00000      -0.00000      -0.00000
     7  C(13)              0.00000       0.00000       0.00000       0.00000
     8  H(1)               0.00000       0.00000       0.00000       0.00000
     9  H(1)               0.00000       0.00000       0.00000       0.00000
 --------------------------------------------------------
       Center         ----  Spin Dipole Couplings  ----
                      3XX-RR        3YY-RR        3ZZ-RR
 --------------------------------------------------------
     1   Atom       -0.000000      0.000000      0.000000
     2   Atom       -0.000000      0.000000     -0.000000
     3   Atom        0.000000      0.000000     -0.000000
     4   Atom        0.000000      0.000000     -0.000000
     5   Atom       -0.000000      0.000000     -0.000000
     6   Atom        0.000000     -0.000000     -0.000000
     7   Atom       -0.000000      0.000000      0.000000
     8   Atom        0.000000     -0.000000      0.000000
     9   Atom       -0.000000      0.000000     -0.000000
 --------------------------------------------------------
                        XY            XZ            YZ
 --------------------------------------------------------
     1   Atom       -0.000000     -0.000000      0.000000
     2   Atom       -0.000000     -0.000000      0.000000
     3   Atom       -0.000000     -0.000000      0.000000
     4   Atom       -0.000000     -0.000000      0.000000
     5   Atom        0.000000     -0.000000     -0.000000
     6   Atom        0.000000      0.000000     -0.000000
     7   Atom        0.000000     -0.000000      0.000000
     8   Atom       -0.000000      0.000000     -0.000000
     9   Atom        0.000000     -0.000000     -0.000000
 --------------------------------------------------------


 ---------------------------------------------------------------------------------
              Anisotropic Spin Dipole Couplings in Principal Axis System
 ---------------------------------------------------------------------------------

       Atom             a.u.   MegaHertz   Gauss  10(-4) cm-1        Axes

              Baa    -0.0000    -0.000    -0.000    -0.000  0.9365  0.3506  0.0015
     1 N(14)  Bbb     0.0000     0.000     0.000     0.000  0.0030 -0.0121  0.9999
              Bcc     0.0000     0.000     0.000     0.000 -0.3506  0.9365  0.0124
 
              Baa    -0.0000    -0.000    -0.000    -0.000  0.0394  0.0018  0.9992
     2 C(13)  Bbb    -0.0000    -0.000    -0.000    -0.000  0.9967  0.0709 -0.0394
              Bcc     0.0000     0.000     0.000     0.000 -0.0709  0.9975  0.0010
 
              Baa    -0.0000    -0.000    -0.000    -0.000  0.6882  0.7253  0.0166
     3 N(14)  Bbb    -0.0000    -0.000    -0.000    -0.000 -0.0086 -0.0147  0.9999
              Bcc     0.0000     0.000     0.000     0.000  0.7255 -0.6882 -0.0039
 
              Baa    -0.0000    -0.000    -0.000    -0.000 -0.0083 -0.0142  0.9999
     4 N(14)  Bbb    -0.0000    -0.000    -0.000    -0.000  0.7706  0.6371  0.0154
              Bcc     0.0000     0.000     0.000     0.000 -0.6373  0.7706  0.0057
 
              Baa    -0.0000     0.000     0.000     0.000  0.7759 -0.6308  0.0031
     5 O(17)  Bbb    -0.0000     0.000     0.000     0.000  0.0006  0.0056  1.0000
              Bcc     0.0000    -0.000    -0.000    -0.000  0.6308  0.7759 -0.0047
 
              Baa    -0.0000    -0.000    -0.000    -0.000 -0.4743  0.8787  0.0551
     6 N(14)  Bbb    -0.0000    -0.000    -0.000    -0.000  0.0222 -0.0506  0.9985
              Bcc     0.0000     0.000     0.000     0.000  0.8801  0.4748  0.0045
 
              Baa    -0.0000    -0.000    -0.000    -0.000  0.8789 -0.4769  0.0092
     7 C(13)  Bbb     0.0000     0.000     0.000     0.000  0.4759  0.8780  0.0509
              Bcc     0.0000     0.000     0.000     0.000 -0.0324 -0.0403  0.9987
 
              Baa    -0.0000    -0.000    -0.000    -0.000  0.4691  0.8830  0.0185
     8 H(1)   Bbb     0.0000     0.000     0.000     0.000 -0.0228 -0.0088  0.9997
              Bcc     0.0000     0.000     0.000     0.000  0.8829 -0.4694  0.0160
 
              Baa    -0.0000    -0.000    -0.000    -0.000  0.0137  0.0046  0.9999
     9 H(1)   Bbb    -0.0000    -0.000    -0.000    -0.000  0.9999 -0.0056 -0.0136
              Bcc     0.0000     0.000     0.000     0.000  0.0056  1.0000 -0.0046
 

 ---------------------------------------------------------------------------------

   1 Symmetry operations used in ECPInt.
 ECPInt:  NShTT=    3655 NPrTT=   11788 LenC2=    3432 LenP2D=    8574.
 LDataN:  DoStor=T MaxTD1= 7 Len=  274
 Calling FoFJK, ICntrl=      2127 FMM=F ISym2X=0 I1Cent= 0 IOpClX= 1 NMat=1 NMatS=1 NMatT=0.
 ***** Axes restored to original set *****
 -------------------------------------------------------------------
 Center     Atomic                   Forces (Hartrees/Bohr)
 Number     Number              X              Y              Z
 -------------------------------------------------------------------
      1        7          -0.007331412    0.006246896   -0.000010346
      2        6           0.009480301   -0.000366343    0.000004913
      3        7          -0.000504728   -0.000004121   -0.000000005
      4        7          -0.000404644    0.000151677   -0.000000006
      5        8          -0.004981684    0.002912633    0.000000679
      6        7          -0.000042397   -0.006318630   -0.000000038
      7        6           0.002413030   -0.000299948    0.000000082
      8        1           0.001494037   -0.002556707    0.000005124
      9        1          -0.000122504    0.000234542   -0.000000402
 -------------------------------------------------------------------
 Cartesian Forces:  Max     0.009480301 RMS     0.003169323

 GradGradGradGradGradGradGradGradGradGradGradGradGradGradGradGradGradGrad
 Berny optimization.
 FormGI is forming the generalized inverse of G from B-inverse, IUseBI=4.
 Internal  Forces:  Max     0.012745532 RMS     0.003759519
 Search for a local minimum.
 Step number   1 out of a maximum of   34
 All quantities printed in internal units (Hartrees-Bohrs-Radians)
 Mixed Optimization -- RFO/linear search
 Second derivative matrix not updated -- first step.
 ITU=  0
     Eigenvalues ---    0.00230   0.00457   0.01092   0.01092   0.01438
     Eigenvalues ---    0.01646   0.01709   0.02808   0.16000   0.16000
     Eigenvalues ---    0.22000   0.25000   0.25000   0.25000   0.36827
     Eigenvalues ---    0.45839   0.48542   0.55966   0.99388   1.24048
     Eigenvalues ---    1.89748
 RFO step:  Lambda=-1.74853709D-03 EMin= 2.30000000D-03
 Linear search not attempted -- first point.
 Iteration  1 RMS(Cart)=  0.04931138 RMS(Int)=  0.00405736
 Iteration  2 RMS(Cart)=  0.00414220 RMS(Int)=  0.00000206
 Iteration  3 RMS(Cart)=  0.00000308 RMS(Int)=  0.00000001
 Iteration  4 RMS(Cart)=  0.00000000 RMS(Int)=  0.00000001
 Variable       Old X    -DE/DX   Delta X   Delta X   Delta X     New X
                                 (Linear)    (Quad)   (Total)
    R1        2.20311   0.00298   0.00000   0.00240   0.00240   2.20551
    R2        1.88066  -0.00266   0.00000  -0.00547  -0.00547   1.87519
    R3        2.54284   0.00249   0.00000   0.00444   0.00444   2.54728
    R4        2.05542   0.00042   0.00000   0.00022   0.00022   2.05564
    R5        5.29222   0.00091   0.00000   0.05654   0.05654   5.34876
    R6        2.28885  -0.00151   0.00000  -0.00152  -0.00152   2.28733
    R7        2.64313  -0.00401   0.00000  -0.00871  -0.00871   2.63442
    R8        2.02807   0.00041   0.00000   0.00111   0.00111   2.02918
    A1        2.81380   0.01130   0.00000   0.04487   0.04487   2.85867
    A2        2.86862   0.00019   0.00000   0.00120   0.00120   2.86982
    A3        2.11144  -0.01275   0.00000  -0.05063  -0.05063   2.06082
    A4        2.03380  -0.00007   0.00000  -0.00033  -0.00033   2.03347
    A5        2.19483  -0.00055   0.00000  -0.00345  -0.00345   2.19138
    A6        2.05455   0.00062   0.00000   0.00378   0.00378   2.05834
    A7        1.99910   0.00090   0.00000   0.00359   0.00359   2.00269
    A8        2.94586   0.00243   0.00000   0.19191   0.19191   3.13777
    A9        3.14128  -0.00001   0.00000  -0.00083  -0.00083   3.14045
    D1        0.00014   0.00000   0.00000   0.00002   0.00002   0.00016
    D2       -3.14142   0.00000   0.00000  -0.00000  -0.00000  -3.14142
    D3        0.00003  -0.00000   0.00000  -0.00005  -0.00005  -0.00002
    D4        0.00002   0.00000   0.00000   0.00002   0.00002   0.00004
    D5        3.14158   0.00000   0.00000   0.00004   0.00004  -3.14156
    D6       -0.00002  -0.00000   0.00000  -0.00019  -0.00019  -0.00021
    D7       -3.14158  -0.00000   0.00000  -0.00021  -0.00021   3.14139
         Item               Value     Threshold  Converged?
 Maximum Force            0.012746     0.000450     NO 
 RMS     Force            0.003760     0.000300     NO 
 Maximum Displacement     0.178728     0.001800     NO 
 RMS     Displacement     0.049299     0.001200     NO 
 Predicted change in Energy=-9.134225D-04
 GradGradGradGradGradGradGradGradGradGradGradGradGradGradGradGradGradGrad

                          Input orientation:                          
 ---------------------------------------------------------------------
 Center     Atomic      Atomic             Coordinates (Angstroms)
 Number     Number       Type             X           Y           Z
 ---------------------------------------------------------------------
      1          7           0        0.416833    1.799809   -0.000372
      2          6           0        0.334692    0.635598   -0.000221
      3          7           0       -2.802381   -0.624457    0.000046
      4          7           0       -3.713711   -0.030505    0.000109
      5          8           0        2.785982   -0.133524    0.000167
      6          7           0        1.969636   -1.027200    0.000118
      7          6           0        0.618966   -0.682048   -0.000068
      8          1           0        0.482889    2.789915    0.000505
      9          1           0       -0.103277   -1.476657   -0.000083
 ---------------------------------------------------------------------
                    Distance matrix (angstroms):
                    1          2          3          4          5
     1  N    0.000000
     2  C    1.167105   0.000000
     3  N    4.029939   3.380676   0.000000
     4  N    4.517902   4.102836   1.087797   0.000000
     5  O    3.057882   2.569118   5.609885   6.500509   0.000000
     6  N    3.225395   2.331938   4.788982   5.770081   1.210403
     7  C    2.490074   1.347962   3.421832   4.381392   2.235360
     8  H    0.992308   2.159409   4.738242   5.056305   3.721657
     9  H    3.317490   2.157182   2.830443   3.889292   3.186192
                    6          7          8          9
     6  N    0.000000
     7  C    1.394073   0.000000
     8  H    4.096435   3.474629   0.000000
     9  H    2.121079   1.073796   4.306649   0.000000
 Stoichiometry    C2H2N4O
 Framework group  C1[X(C2H2N4O)]
 Deg. of freedom    21
 Full point group                 C1      NOp   1
 Largest Abelian subgroup         C1      NOp   1
 Largest concise Abelian subgroup C1      NOp   1
                         Standard orientation:                         
 ---------------------------------------------------------------------
 Center     Atomic      Atomic             Coordinates (Angstroms)
 Number     Number       Type             X           Y           Z
 ---------------------------------------------------------------------
      1          7           0        0.439918    1.780915   -0.000358
      2          6           0        0.349468    0.617321   -0.000208
      3          7           0       -2.796522   -0.620305    0.000059
      4          7           0       -3.703588   -0.019862    0.000122
      5          8           0        2.795203   -0.169283    0.000181
      6          7           0        1.972498   -1.057107    0.000131
      7          6           0        0.624327   -0.702321   -0.000055
      8          1           0        0.513041    2.770525    0.000519
      9          1           0       -0.103571   -1.491753   -0.000070
 ---------------------------------------------------------------------
 Rotational constants (GHZ):           5.8519176           1.0310237           0.8765825
 Standard basis: def2TZVP (5D, 7F)
 There are   264 symmetry adapted cartesian basis functions of A   symmetry.
 There are   229 symmetry adapted basis functions of A   symmetry.
   229 basis functions,   373 primitive gaussians,   264 cartesian basis functions
    25 alpha electrons       25 beta electrons
       nuclear repulsion energy       231.0348037534 Hartrees.
 NAtoms=    9 NActive=    9 NUniq=    9 SFac= 1.00D+00 NAtFMM=   60 NAOKFM=F Big=F
 Integral buffers will be    131072 words long.
 Raffenetti 2 integral format.
 Two-electron integral symmetry is turned on.
 Nuclear repulsion after empirical dispersion term =      231.0325318117 Hartrees.
 One-electron integrals computed using PRISM.
   1 Symmetry operations used in ECPInt.
 ECPInt:  NShTT=    3655 NPrTT=   11788 LenC2=    3434 LenP2D=    8574.
 LDataN:  DoStor=T MaxTD1= 6 Len=  172
 NBasis=   229 RedAO= T EigKep=  8.33D-05  NBF=   229
 NBsUse=   229 1.00D-06 EigRej= -1.00D+00 NBFU=   229
 Initial guess from the checkpoint file:  "/scratch/23935644/Gau-23939.chk"
 B after Tr=     0.000000   -0.000000    0.000000
         Rot=    1.000000    0.000056    0.000000   -0.000129 Ang=   0.02 deg.
 Initial guess <Sx>= 0.0000 <Sy>= 0.0000 <Sz>= 0.0000 <S**2>=-0.0000 S=-0.0000
 ExpMin= 9.52D-02 ExpMax= 2.70D+04 ExpMxC= 9.22D+02 IAcc=2 IRadAn=         4 AccDes= 0.00D+00
 Harris functional with IExCor= 4639 and IRadAn=       4 diagonalized for initial guess.
 HarFok:  IExCor= 4639 AccDes= 0.00D+00 IRadAn=         4 IDoV= 1 UseB2=F ITyADJ=14
 ICtDFT=  3500011 ScaDFX=  1.000000  1.000000  1.000000  1.000000
 FoFCou: FMM=F IPFlag=           0 FMFlag=      100000 FMFlg1=           0
         NFxFlg=           0 DoJE=T BraDBF=F KetDBF=T FulRan=T
         wScrn=  0.000000 ICntrl=       500 IOpCl=  0 I1Cent=   200000004 NGrid=           0
         NMat0=    1 NMatS0=      1 NMatT0=    0 NMatD0=    1 NMtDS0=    0 NMtDT0=    0
 Petite list used in FoFCou.
 Requested convergence on RMS density matrix=1.00D-08 within 128 cycles.
 Requested convergence on MAX density matrix=1.00D-06.
 Requested convergence on             energy=1.00D-06.
 No special actions if energy rises.
 Integral accuracy reduced to 1.0D-05 until final iterations.
 Initial convergence to 1.0D-05 achieved.  Increase integral accuracy.
 SCF Done:  E(UwB97XD) =  -371.536274159     A.U. after   14 cycles
            NFock= 14  Conv=0.77D-08     -V/T= 2.0038
 <Sx>= 0.0000 <Sy>= 0.0000 <Sz>= 0.0000 <S**2>=-0.0000 S=-0.0000
 <L.S>=  0.00000000000    
 Annihilation of the first spin contaminant:
 S**2 before annihilation    -0.0000,   after    -0.0000
   1 Symmetry operations used in ECPInt.
 ECPInt:  NShTT=    3655 NPrTT=   11788 LenC2=    3434 LenP2D=    8574.
 LDataN:  DoStor=T MaxTD1= 7 Len=  274
 Calling FoFJK, ICntrl=      2127 FMM=F ISym2X=0 I1Cent= 0 IOpClX= 1 NMat=1 NMatS=1 NMatT=0.
 ***** Axes restored to original set *****
 -------------------------------------------------------------------
 Center     Atomic                   Forces (Hartrees/Bohr)
 Number     Number              X              Y              Z
 -------------------------------------------------------------------
      1        7          -0.004549474   -0.006494116   -0.000043871
      2        6           0.008679597    0.006942017    0.000031531
      3        7          -0.000705241    0.000230214   -0.000000105
      4        7          -0.000070526   -0.000080577    0.000000053
      5        8           0.007376418    0.002695656    0.000000046
      6        7          -0.004103669   -0.001190595    0.000000933
      7        6          -0.004645787   -0.003086300   -0.000005864
      8        1          -0.001081137    0.000136122    0.000019391
      9        1          -0.000900181    0.000847578   -0.000002115
 -------------------------------------------------------------------
 Cartesian Forces:  Max     0.008679597 RMS     0.003337352

 GradGradGradGradGradGradGradGradGradGradGradGradGradGradGradGradGradGrad
 Berny optimization.
 Using GEDIIS/GDIIS optimizer.
 FormGI is forming the generalized inverse of G from B-inverse, IUseBI=4.
 Internal  Forces:  Max     0.013434483 RMS     0.003936783
 Search for a local minimum.
 Step number   2 out of a maximum of   34
 All quantities printed in internal units (Hartrees-Bohrs-Radians)
 Mixed Optimization -- RFO/linear search
 Update second derivatives using D2CorX and points    1    2
 DE= -7.82D-04 DEPred=-9.13D-04 R= 8.56D-01
 TightC=F SS=  1.41D+00  RLast= 2.12D-01 DXNew= 5.0454D-01 6.3484D-01
 Trust test= 8.56D-01 RLast= 2.12D-01 DXMaxT set to 5.05D-01
 ITU=  1  0
 Use linear search instead of GDIIS.
     Eigenvalues ---    0.00230   0.00457   0.01092   0.01304   0.01504
     Eigenvalues ---    0.01645   0.01709   0.02808   0.12320   0.16000
     Eigenvalues ---    0.16353   0.22115   0.25000   0.36818   0.38700
     Eigenvalues ---    0.48090   0.50370   0.56175   1.03270   1.30420
     Eigenvalues ---    1.89747
 RFO step:  Lambda=-1.24195016D-03 EMin= 2.30000002D-03
 Quartic linear search produced a step of -0.10128.
 Iteration  1 RMS(Cart)=  0.07592033 RMS(Int)=  0.00226785
 Iteration  2 RMS(Cart)=  0.00332073 RMS(Int)=  0.00000076
 Iteration  3 RMS(Cart)=  0.00000249 RMS(Int)=  0.00000003
 Iteration  4 RMS(Cart)=  0.00000000 RMS(Int)=  0.00000003
 Variable       Old X    -DE/DX   Delta X   Delta X   Delta X     New X
                                 (Linear)    (Quad)   (Total)
    R1        2.20551  -0.00674  -0.00024  -0.00285  -0.00309   2.20242
    R2        1.87519   0.00006   0.00055  -0.00444  -0.00388   1.87131
    R3        2.54728  -0.00007  -0.00045   0.00358   0.00313   2.55041
    R4        2.05564   0.00002  -0.00002   0.00019   0.00017   2.05581
    R5        5.34876   0.00079  -0.00573   0.08939   0.08367   5.43243
    R6        2.28733   0.00696   0.00015   0.00498   0.00514   2.29247
    R7        2.63442   0.00280   0.00088  -0.00182  -0.00094   2.63348
    R8        2.02918   0.00039  -0.00011   0.00186   0.00175   2.03093
    A1        2.85867   0.01343  -0.00454   0.08503   0.08048   2.93915
    A2        2.86982   0.00022  -0.00012   0.00219   0.00207   2.87189
    A3        2.06082   0.00830   0.00513  -0.01259  -0.00746   2.05336
    A4        2.03347   0.00262   0.00003   0.01029   0.01032   2.04379
    A5        2.19138  -0.00291   0.00035  -0.01699  -0.01664   2.17474
    A6        2.05834   0.00029  -0.00038   0.00670   0.00632   2.06465
    A7        2.00269   0.00069  -0.00036   0.00543   0.00507   2.00776
    A8        3.13777  -0.00204  -0.01944  -0.00122  -0.02066   3.11711
    A9        3.14045  -0.00003   0.00008  -0.00292  -0.00284   3.13761
    D1        0.00016   0.00000  -0.00000   0.00009   0.00008   0.00025
    D2       -3.14142   0.00000   0.00000   0.00010   0.00010  -3.14132
    D3       -0.00002   0.00000   0.00001  -0.00000   0.00000  -0.00001
    D4        0.00004  -0.00000  -0.00000  -0.00000  -0.00001   0.00003
    D5       -3.14156  -0.00000  -0.00000  -0.00002  -0.00002  -3.14158
    D6       -0.00021   0.00000   0.00002   0.00001   0.00003  -0.00017
    D7        3.14139   0.00000   0.00002   0.00003   0.00005   3.14144
         Item               Value     Threshold  Converged?
 Maximum Force            0.013434     0.000450     NO 
 RMS     Force            0.003937     0.000300     NO 
 Maximum Displacement     0.270955     0.001800     NO 
 RMS     Displacement     0.076822     0.001200     NO 
 Predicted change in Energy=-6.403492D-04
 GradGradGradGradGradGradGradGradGradGradGradGradGradGradGradGradGradGrad

                          Input orientation:                          
 ---------------------------------------------------------------------
 Center     Atomic      Atomic             Coordinates (Angstroms)
 Number     Number       Type             X           Y           Z
 ---------------------------------------------------------------------
      1          7           0        0.370898    1.789153   -0.001423
      2          6           0        0.379323    0.623715   -0.000719
      3          7           0       -2.806560   -0.572550    0.000142
      4          7           0       -3.710580    0.032632   -0.000070
      5          8           0        2.829020   -0.168064   -0.000110
      6          7           0        2.005768   -1.059084    0.000305
      7          6           0        0.660227   -0.696348    0.000028
      8          1           0        0.339506    2.778904    0.001649
      9          1           0       -0.077972   -1.477428    0.000398
 ---------------------------------------------------------------------
                    Distance matrix (angstroms):
                    1          2          3          4          5
     1  N    0.000000
     2  C    1.165469   0.000000
     3  N    3.959025   3.403072   0.000000
     4  N    4.443402   4.132394   1.087887   0.000000
     5  O    3.142144   2.574477   5.650077   6.542679   0.000000
     6  N    3.284092   2.340328   4.836860   5.819662   1.213121
     7  C    2.502285   1.349619   3.468997   4.431181   2.232207
     8  H    0.990253   2.155558   4.596735   4.893383   3.857759
     9  H    3.297277   2.150330   2.874717   3.933970   3.188265
                    6          7          8          9
     6  N    0.000000
     7  C    1.393577   0.000000
     8  H    4.184087   3.490020   0.000000
     9  H    2.125319   1.074720   4.276757   0.000000
 Stoichiometry    C2H2N4O
 Framework group  C1[X(C2H2N4O)]
 Deg. of freedom    21
 Full point group                 C1      NOp   1
 Largest Abelian subgroup         C1      NOp   1
 Largest concise Abelian subgroup C1      NOp   1
                         Standard orientation:                         
 ---------------------------------------------------------------------
 Center     Atomic      Atomic             Coordinates (Angstroms)
 Number     Number       Type             X           Y           Z
 ---------------------------------------------------------------------
      1          7           0        0.333304    1.778950   -0.000497
      2          6           0        0.364462    0.613897   -0.000261
      3          7           0       -2.797477   -0.644290    0.000050
      4          7           0       -3.713131   -0.056859    0.000061
      5          8           0        2.829140   -0.129942    0.000083
      6          7           0        2.023426   -1.036853    0.000122
      7          6           0        0.671065   -0.700434   -0.000038
      8          1           0        0.282610    2.767898    0.002971
      9          1           0       -0.051756   -1.495767    0.000003
 ---------------------------------------------------------------------
 Rotational constants (GHZ):           5.8857290           1.0175854           0.8675879
 Standard basis: def2TZVP (5D, 7F)
 There are   264 symmetry adapted cartesian basis functions of A   symmetry.
 There are   229 symmetry adapted basis functions of A   symmetry.
   229 basis functions,   373 primitive gaussians,   264 cartesian basis functions
    25 alpha electrons       25 beta electrons
       nuclear repulsion energy       230.3027776674 Hartrees.
 NAtoms=    9 NActive=    9 NUniq=    9 SFac= 1.00D+00 NAtFMM=   60 NAOKFM=F Big=F
 Integral buffers will be    131072 words long.
 Raffenetti 2 integral format.
 Two-electron integral symmetry is turned on.
 Nuclear repulsion after empirical dispersion term =      230.3005131222 Hartrees.
 One-electron integrals computed using PRISM.
   1 Symmetry operations used in ECPInt.
 ECPInt:  NShTT=    3655 NPrTT=   11788 LenC2=    3434 LenP2D=    8561.
 LDataN:  DoStor=T MaxTD1= 6 Len=  172
 NBasis=   229 RedAO= T EigKep=  7.78D-05  NBF=   229
 NBsUse=   229 1.00D-06 EigRej= -1.00D+00 NBFU=   229
 Initial guess from the checkpoint file:  "/scratch/23935644/Gau-23939.chk"
 B after Tr=    -0.000000    0.000000    0.000000
         Rot=    0.999961   -0.000051    0.000000   -0.008797 Ang=  -1.01 deg.
 Initial guess <Sx>= 0.0000 <Sy>= 0.0000 <Sz>= 0.0000 <S**2>= 0.0000 S= 0.0000
 ExpMin= 9.52D-02 ExpMax= 2.70D+04 ExpMxC= 9.22D+02 IAcc=2 IRadAn=         4 AccDes= 0.00D+00
 Harris functional with IExCor= 4639 and IRadAn=       4 diagonalized for initial guess.
 HarFok:  IExCor= 4639 AccDes= 0.00D+00 IRadAn=         4 IDoV= 1 UseB2=F ITyADJ=14
 ICtDFT=  3500011 ScaDFX=  1.000000  1.000000  1.000000  1.000000
 FoFCou: FMM=F IPFlag=           0 FMFlag=      100000 FMFlg1=           0
         NFxFlg=           0 DoJE=T BraDBF=F KetDBF=T FulRan=T
         wScrn=  0.000000 ICntrl=       500 IOpCl=  0 I1Cent=   200000004 NGrid=           0
         NMat0=    1 NMatS0=      1 NMatT0=    0 NMatD0=    1 NMtDS0=    0 NMtDT0=    0
 Petite list used in FoFCou.
 Requested convergence on RMS density matrix=1.00D-08 within 128 cycles.
 Requested convergence on MAX density matrix=1.00D-06.
 Requested convergence on             energy=1.00D-06.
 No special actions if energy rises.
 Integral accuracy reduced to 1.0D-05 until final iterations.
 Initial convergence to 1.0D-05 achieved.  Increase integral accuracy.
 SCF Done:  E(UwB97XD) =  -371.537297503     A.U. after   14 cycles
            NFock= 14  Conv=0.57D-08     -V/T= 2.0039
 <Sx>= 0.0000 <Sy>= 0.0000 <Sz>= 0.0000 <S**2>=-0.0000 S=-0.0000
 <L.S>=  0.00000000000    
 Annihilation of the first spin contaminant:
 S**2 before annihilation    -0.0000,   after     0.0000
   1 Symmetry operations used in ECPInt.
 ECPInt:  NShTT=    3655 NPrTT=   11788 LenC2=    3434 LenP2D=    8561.
 LDataN:  DoStor=T MaxTD1= 7 Len=  274
 Calling FoFJK, ICntrl=      2127 FMM=F ISym2X=0 I1Cent= 0 IOpClX= 1 NMat=1 NMatS=1 NMatT=0.
 ***** Axes restored to original set *****
 -------------------------------------------------------------------
 Center     Atomic                   Forces (Hartrees/Bohr)
 Number     Number              X              Y              Z
 -------------------------------------------------------------------
      1        7          -0.003353333   -0.006811053   -0.000170236
      2        6           0.004483087    0.002903881    0.000123644
      3        7          -0.000750586    0.000405008   -0.000000184
      4        7           0.000184159   -0.000260742    0.000000023
      5        8           0.005370812    0.001890186   -0.000002308
      6        7          -0.003616433   -0.001420937    0.000005647
      7        6          -0.001463743    0.000304010   -0.000025283
      8        1          -0.000172323    0.002071786    0.000076974
      9        1          -0.000681640    0.000917860   -0.000008276
 -------------------------------------------------------------------
 Cartesian Forces:  Max     0.006811053 RMS     0.002296747

 GradGradGradGradGradGradGradGradGradGradGradGradGradGradGradGradGradGrad
 Berny optimization.
 Using GEDIIS/GDIIS optimizer.
 FormGI is forming the generalized inverse of G from B-inverse, IUseBI=4.
 Internal  Forces:  Max     0.008031499 RMS     0.002759678
 Search for a local minimum.
 Step number   3 out of a maximum of   34
 All quantities printed in internal units (Hartrees-Bohrs-Radians)
 Mixed Optimization -- RFO/linear search
 Update second derivatives using D2CorX and points    1    2    3
 DE= -1.02D-03 DEPred=-6.40D-04 R= 1.60D+00
 TightC=F SS=  1.41D+00  RLast= 1.20D-01 DXNew= 8.4853D-01 3.6108D-01
 Trust test= 1.60D+00 RLast= 1.20D-01 DXMaxT set to 5.05D-01
 ITU=  1  1  0
 Use linear search instead of GDIIS.
     Eigenvalues ---    0.00230   0.00457   0.00873   0.01096   0.01612
     Eigenvalues ---    0.01647   0.01709   0.02808   0.06721   0.16000
     Eigenvalues ---    0.16465   0.23587   0.25001   0.36705   0.36853
     Eigenvalues ---    0.47942   0.50631   0.58368   1.01532   1.27754
     Eigenvalues ---    1.89788
 RFO step:  Lambda=-7.98897904D-04 EMin= 2.29999999D-03
 Quartic linear search produced a step of  1.26186.
 Iteration  1 RMS(Cart)=  0.12940389 RMS(Int)=  0.00781896
 Iteration  2 RMS(Cart)=  0.01046711 RMS(Int)=  0.00005678
 Iteration  3 RMS(Cart)=  0.00003392 RMS(Int)=  0.00000113
 Iteration  4 RMS(Cart)=  0.00000000 RMS(Int)=  0.00000113
 Variable       Old X    -DE/DX   Delta X   Delta X   Delta X     New X
                                 (Linear)    (Quad)   (Total)
    R1        2.20242  -0.00471  -0.00390  -0.00416  -0.00806   2.19436
    R2        1.87131   0.00208  -0.00490   0.00657   0.00167   1.87297
    R3        2.55041  -0.00200   0.00395  -0.00553  -0.00158   2.54883
    R4        2.05581  -0.00030   0.00021  -0.00023  -0.00002   2.05579
    R5        5.43243   0.00058   0.10557   0.03350   0.13908   5.57150
    R6        2.29247   0.00503   0.00648   0.00671   0.01319   2.30566
    R7        2.63348   0.00157  -0.00118  -0.00104  -0.00222   2.63126
    R8        2.03093   0.00008   0.00220   0.00056   0.00276   2.03369
    A1        2.93915   0.00803   0.10156   0.06821   0.16977   3.10893
    A2        2.87189   0.00023   0.00261   0.00320   0.00581   2.87770
    A3        2.05336   0.00610  -0.00941   0.00602  -0.00340   2.04996
    A4        2.04379   0.00344   0.01302   0.02883   0.04185   2.08564
    A5        2.17474  -0.00317  -0.02099  -0.03114  -0.05214   2.12261
    A6        2.06465  -0.00027   0.00797   0.00231   0.01028   2.07494
    A7        2.00776   0.00044   0.00639   0.00451   0.01090   2.01866
    A8        3.11711  -0.00020  -0.02607   0.19421   0.16814   3.28525
    A9        3.13761  -0.00012  -0.00358  -0.02080  -0.02438   3.11323
    D1        0.00025   0.00001   0.00011   0.00049   0.00059   0.00084
    D2       -3.14132   0.00001   0.00013   0.00065   0.00078  -3.14054
    D3       -0.00001  -0.00000   0.00000  -0.00015  -0.00015  -0.00016
    D4        0.00003  -0.00000  -0.00001  -0.00009  -0.00010  -0.00007
    D5       -3.14158  -0.00000  -0.00003  -0.00025  -0.00028   3.14132
    D6       -0.00017  -0.00000   0.00004  -0.00069  -0.00065  -0.00082
    D7        3.14144   0.00000   0.00006  -0.00052  -0.00046   3.14098
         Item               Value     Threshold  Converged?
 Maximum Force            0.008031     0.000450     NO 
 RMS     Force            0.002760     0.000300     NO 
 Maximum Displacement     0.347881     0.001800     NO 
 RMS     Displacement     0.132067     0.001200     NO 
 Predicted change in Energy=-1.044770D-03
 GradGradGradGradGradGradGradGradGradGradGradGradGradGradGradGradGradGrad

                          Input orientation:                          
 ---------------------------------------------------------------------
 Center     Atomic      Atomic             Coordinates (Angstroms)
 Number     Number       Type             X           Y           Z
 ---------------------------------------------------------------------
      1          7           0        0.206491    1.743643   -0.010573
      2          6           0        0.431920    0.604544   -0.005385
      3          7           0       -2.804842   -0.474277    0.000891
      4          7           0       -3.698402    0.146225   -0.001161
      5          8           0        2.918187   -0.223869   -0.001656
      6          7           0        2.072366   -1.103199    0.002373
      7          6           0        0.736839   -0.709309    0.000562
      8          1           0        0.155415    2.733218    0.011377
      9          1           0       -0.028345   -1.466045    0.003773
 ---------------------------------------------------------------------
                    Distance matrix (angstroms):
                    1          2          3          4          5
     1  N    0.000000
     2  C    1.161203   0.000000
     3  N    3.739977   3.411821   0.000000
     4  N    4.219008   4.155675   1.087878   0.000000
     5  O    3.350295   2.620650   5.728506   6.626932   0.000000
     6  N    3.403846   2.368018   4.917591   5.904477   1.220103
     7  C    2.509655   1.348785   3.549471   4.517002   2.234712
     8  H    0.991136   2.146623   4.364775   4.641615   4.046906
     9  H    3.218299   2.121147   2.948312   4.008586   3.197669
                    6          7          8          9
     6  N    0.000000
     7  C    1.392403   0.000000
     8  H    4.288692   3.491299   0.000000
     9  H    2.131818   1.076182   4.203289   0.000000
 Stoichiometry    C2H2N4O
 Framework group  C1[X(C2H2N4O)]
 Deg. of freedom    21
 Full point group                 C1      NOp   1
 Largest Abelian subgroup         C1      NOp   1
 Largest concise Abelian subgroup C1      NOp   1
                         Standard orientation:                         
 ---------------------------------------------------------------------
 Center     Atomic      Atomic             Coordinates (Angstroms)
 Number     Number       Type             X           Y           Z
 ---------------------------------------------------------------------
      1          7           0        0.069508    1.731829   -0.003400
      2          6           0        0.372585    0.610877   -0.001731
      3          7           0       -2.782503   -0.687561    0.000398
      4          7           0       -3.716543   -0.129846    0.000079
      5          8           0        2.909846   -0.044952   -0.000010
      6          7           0        2.126370   -0.980268    0.001062
      7          6           0        0.766958   -0.678963    0.000170
      8          1           0       -0.049366    2.715491    0.021639
      9          1           0        0.055515   -1.486437    0.000827
 ---------------------------------------------------------------------
 Rotational constants (GHZ):           6.1634364           0.9921430           0.8545812
 Standard basis: def2TZVP (5D, 7F)
 There are   264 symmetry adapted cartesian basis functions of A   symmetry.
 There are   229 symmetry adapted basis functions of A   symmetry.
   229 basis functions,   373 primitive gaussians,   264 cartesian basis functions
    25 alpha electrons       25 beta electrons
       nuclear repulsion energy       229.1937237379 Hartrees.
 NAtoms=    9 NActive=    9 NUniq=    9 SFac= 1.00D+00 NAtFMM=   60 NAOKFM=F Big=F
 Integral buffers will be    131072 words long.
 Raffenetti 2 integral format.
 Two-electron integral symmetry is turned on.
 Nuclear repulsion after empirical dispersion term =      229.1914396503 Hartrees.
 One-electron integrals computed using PRISM.
   1 Symmetry operations used in ECPInt.
 ECPInt:  NShTT=    3655 NPrTT=   11788 LenC2=    3432 LenP2D=    8555.
 LDataN:  DoStor=T MaxTD1= 6 Len=  172
 NBasis=   229 RedAO= T EigKep=  7.19D-05  NBF=   229
 NBsUse=   229 1.00D-06 EigRej= -1.00D+00 NBFU=   229
 Initial guess from the checkpoint file:  "/scratch/23935644/Gau-23939.chk"
 B after Tr=    -0.000000   -0.000000   -0.000000
         Rot=    0.999828    0.000004   -0.000000   -0.018556 Ang=   2.13 deg.
 Initial guess <Sx>= 0.0000 <Sy>= 0.0000 <Sz>= 0.0000 <S**2>=-0.0000 S=-0.0000
 ExpMin= 9.52D-02 ExpMax= 2.70D+04 ExpMxC= 9.22D+02 IAcc=2 IRadAn=         4 AccDes= 0.00D+00
 Harris functional with IExCor= 4639 and IRadAn=       4 diagonalized for initial guess.
 HarFok:  IExCor= 4639 AccDes= 0.00D+00 IRadAn=         4 IDoV= 1 UseB2=F ITyADJ=14
 ICtDFT=  3500011 ScaDFX=  1.000000  1.000000  1.000000  1.000000
 FoFCou: FMM=F IPFlag=           0 FMFlag=      100000 FMFlg1=           0
         NFxFlg=           0 DoJE=T BraDBF=F KetDBF=T FulRan=T
         wScrn=  0.000000 ICntrl=       500 IOpCl=  0 I1Cent=   200000004 NGrid=           0
         NMat0=    1 NMatS0=      1 NMatT0=    0 NMatD0=    1 NMtDS0=    0 NMtDT0=    0
 Petite list used in FoFCou.
 Requested convergence on RMS density matrix=1.00D-08 within 128 cycles.
 Requested convergence on MAX density matrix=1.00D-06.
 Requested convergence on             energy=1.00D-06.
 No special actions if energy rises.
 Integral accuracy reduced to 1.0D-05 until final iterations.
 Initial convergence to 1.0D-05 achieved.  Increase integral accuracy.
 SCF Done:  E(UwB97XD) =  -371.537857013     A.U. after   19 cycles
            NFock= 19  Conv=0.36D-08     -V/T= 2.0039
 <Sx>= 0.0000 <Sy>= 0.0000 <Sz>= 0.0000 <S**2>=-0.0000 S=-0.0000
 <L.S>=  0.00000000000    
 Annihilation of the first spin contaminant:
 S**2 before annihilation    -0.0000,   after     0.0000
   1 Symmetry operations used in ECPInt.
 ECPInt:  NShTT=    3655 NPrTT=   11788 LenC2=    3432 LenP2D=    8555.
 LDataN:  DoStor=T MaxTD1= 7 Len=  274
 Calling FoFJK, ICntrl=      2127 FMM=F ISym2X=0 I1Cent= 0 IOpClX= 1 NMat=1 NMatS=1 NMatT=0.
 ***** Axes restored to original set *****
 -------------------------------------------------------------------
 Center     Atomic                   Forces (Hartrees/Bohr)
 Number     Number              X              Y              Z
 -------------------------------------------------------------------
      1        7           0.002697571    0.003831301   -0.001270155
      2        6          -0.001389469   -0.005824564    0.000943388
      3        7          -0.000569949    0.000365539   -0.000001503
      4        7           0.000224342   -0.000305092    0.000000242
      5        8          -0.002729892   -0.000956511   -0.000020561
      6        7          -0.001376124    0.001085769   -0.000024901
      7        6           0.004521693    0.000657980   -0.000212899
      8        1          -0.001554631    0.001512202    0.000555450
      9        1           0.000176459   -0.000366624    0.000030939
 -------------------------------------------------------------------
 Cartesian Forces:  Max     0.005824564 RMS     0.001909630

 GradGradGradGradGradGradGradGradGradGradGradGradGradGradGradGradGradGrad
 Berny optimization.
 Using GEDIIS/GDIIS optimizer.
 FormGI is forming the generalized inverse of G from B-inverse, IUseBI=4.
 Internal  Forces:  Max     0.005022184 RMS     0.001746752
 Search for a local minimum.
 Step number   4 out of a maximum of   34
 All quantities printed in internal units (Hartrees-Bohrs-Radians)
 Mixed Optimization -- RFO/linear search
 Update second derivatives using D2CorX and points    1    2    3    4
 DE= -5.60D-04 DEPred=-1.04D-03 R= 5.36D-01
 TightC=F SS=  1.41D+00  RLast= 2.86D-01 DXNew= 8.4853D-01 8.5922D-01
 Trust test= 5.36D-01 RLast= 2.86D-01 DXMaxT set to 8.49D-01
 ITU=  1  1  1  0
 Use linear search instead of GDIIS.
     Eigenvalues ---    0.00230   0.00457   0.01008   0.01262   0.01662
     Eigenvalues ---    0.01709   0.02202   0.02808   0.06171   0.16005
     Eigenvalues ---    0.16422   0.23545   0.25024   0.35455   0.36834
     Eigenvalues ---    0.48554   0.50087   0.57779   1.01388   1.28531
     Eigenvalues ---    1.89790
 RFO step:  Lambda=-3.13934497D-04 EMin= 2.29999412D-03
 Quartic linear search produced a step of -0.28243.
 Iteration  1 RMS(Cart)=  0.03546837 RMS(Int)=  0.00277438
 Iteration  2 RMS(Cart)=  0.00244476 RMS(Int)=  0.00000333
 Iteration  3 RMS(Cart)=  0.00000301 RMS(Int)=  0.00000073
 Iteration  4 RMS(Cart)=  0.00000000 RMS(Int)=  0.00000073
 Variable       Old X    -DE/DX   Delta X   Delta X   Delta X     New X
                                 (Linear)    (Quad)   (Total)
    R1        2.19436   0.00502   0.00228   0.00136   0.00364   2.19799
    R2        1.87297   0.00160  -0.00047   0.00376   0.00328   1.87626
    R3        2.54883  -0.00041   0.00045  -0.00173  -0.00129   2.54755
    R4        2.05579  -0.00036   0.00000  -0.00018  -0.00017   2.05562
    R5        5.57150   0.00035  -0.03928   0.06498   0.02570   5.59721
    R6        2.30566  -0.00258  -0.00373   0.00086  -0.00287   2.30279
    R7        2.63126  -0.00397   0.00063  -0.00748  -0.00686   2.62440
    R8        2.03369   0.00034  -0.00078   0.00114   0.00036   2.03405
    A1        3.10893  -0.00196  -0.04795   0.03152  -0.01643   3.09250
    A2        2.87770   0.00025  -0.00164   0.00262   0.00098   2.87868
    A3        2.04996  -0.00301   0.00096  -0.01204  -0.01108   2.03888
    A4        2.08564  -0.00045  -0.01182   0.00985  -0.00197   2.08367
    A5        2.12261   0.00062   0.01472  -0.01080   0.00393   2.12653
    A6        2.07494  -0.00017  -0.00290   0.00095  -0.00195   2.07299
    A7        2.01866   0.00059  -0.00308   0.00417   0.00109   2.01975
    A8        3.28525  -0.00277  -0.04749  -0.07827  -0.12576   3.15949
    A9        3.11323  -0.00089   0.00689  -0.06745  -0.06056   3.05267
    D1        0.00084  -0.00000  -0.00017  -0.00010  -0.00027   0.00057
    D2       -3.14054   0.00002  -0.00022   0.00103   0.00081  -3.13973
    D3       -0.00016   0.00001   0.00004   0.00399   0.00403   0.00387
    D4       -0.00007  -0.00001   0.00003  -0.00057  -0.00055  -0.00061
    D5        3.14132  -0.00004   0.00008  -0.00167  -0.00159   3.13973
    D6       -0.00082   0.00009   0.00018   0.01364   0.01382   0.01300
    D7        3.14098   0.00011   0.00013   0.01476   0.01489  -3.12732
         Item               Value     Threshold  Converged?
 Maximum Force            0.005022     0.000450     NO 
 RMS     Force            0.001747     0.000300     NO 
 Maximum Displacement     0.109319     0.001800     NO 
 RMS     Displacement     0.035580     0.001200     NO 
 Predicted change in Energy=-2.837458D-04
 GradGradGradGradGradGradGradGradGradGradGradGradGradGradGradGradGradGrad

                          Input orientation:                          
 ---------------------------------------------------------------------
 Center     Atomic      Atomic             Coordinates (Angstroms)
 Number     Number       Type             X           Y           Z
 ---------------------------------------------------------------------
      1          7           0        0.249019    1.748879   -0.030182
      2          6           0        0.448369    0.603110   -0.011710
      3          7           0       -2.810731   -0.465897    0.001261
      4          7           0       -3.703802    0.154892   -0.016723
      5          8           0        2.913541   -0.227985   -0.022477
      6          7           0        2.074424   -1.111281    0.002450
      7          6           0        0.744315   -0.711949    0.008775
      8          1           0        0.097566    2.727622    0.039974
      9          1           0       -0.023071   -1.466462    0.028831
 ---------------------------------------------------------------------
                    Distance matrix (angstroms):
                    1          2          3          4          5
     1  N    0.000000
     2  C    1.163129   0.000000
     3  N    3.777339   3.429967   0.000000
     4  N    4.262132   4.176296   1.087786   0.000000
     5  O    3.317789   2.601520   5.729263   6.628412   0.000000
     6  N    3.393182   2.362920   4.927602   5.915357   1.218586
     7  C    2.510480   1.348104   3.563558   4.531865   2.222777
     8  H    0.992874   2.153900   4.319520   4.590485   4.082797
     9  H    3.227373   2.122976   2.961914   4.022268   3.187499
                    6          7          8          9
     6  N    0.000000
     7  C    1.388775   0.000000
     8  H    4.318165   3.499986   0.000000
     9  H    2.127518   1.076371   4.195833   0.000000
 Stoichiometry    C2H2N4O
 Framework group  C1[X(C2H2N4O)]
 Deg. of freedom    21
 Full point group                 C1      NOp   1
 Largest Abelian subgroup         C1      NOp   1
 Largest concise Abelian subgroup C1      NOp   1
                         Standard orientation:                         
 ---------------------------------------------------------------------
 Center     Atomic      Atomic             Coordinates (Angstroms)
 Number     Number       Type             X           Y           Z
 ---------------------------------------------------------------------
      1          7           0        0.104254    1.739058   -0.007121
      2          6           0        0.382839    0.609823    0.002089
      3          7           0       -2.793981   -0.683423    0.003293
      4          7           0       -3.728077   -0.126149   -0.010385
      5          8           0        2.899869   -0.047621   -0.013291
      6          7           0        2.124239   -0.987336    0.003594
      7          6           0        0.769566   -0.681583    0.012004
      8          1           0       -0.114959    2.704277    0.070962
      9          1           0        0.056534   -1.487800    0.025144
 ---------------------------------------------------------------------
 Rotational constants (GHZ):           6.1305627           0.9896297           0.8521178
 Standard basis: def2TZVP (5D, 7F)
 There are   264 symmetry adapted cartesian basis functions of A   symmetry.
 There are   229 symmetry adapted basis functions of A   symmetry.
   229 basis functions,   373 primitive gaussians,   264 cartesian basis functions
    25 alpha electrons       25 beta electrons
       nuclear repulsion energy       229.2332674828 Hartrees.
 NAtoms=    9 NActive=    9 NUniq=    9 SFac= 1.00D+00 NAtFMM=   60 NAOKFM=F Big=F
 Integral buffers will be    131072 words long.
 Raffenetti 2 integral format.
 Two-electron integral symmetry is turned on.
 Nuclear repulsion after empirical dispersion term =      229.2310053944 Hartrees.
 One-electron integrals computed using PRISM.
   1 Symmetry operations used in ECPInt.
 ECPInt:  NShTT=    3655 NPrTT=   11788 LenC2=    3432 LenP2D=    8550.
 LDataN:  DoStor=T MaxTD1= 6 Len=  172
 NBasis=   229 RedAO= T EigKep=  7.04D-05  NBF=   229
 NBsUse=   229 1.00D-06 EigRej= -1.00D+00 NBFU=   229
 Initial guess from the checkpoint file:  "/scratch/23935644/Gau-23939.chk"
 B after Tr=     0.000000   -0.000000    0.000000
         Rot=    0.999999   -0.000021    0.000013    0.001175 Ang=  -0.13 deg.
 Initial guess <Sx>= 0.0000 <Sy>= 0.0000 <Sz>= 0.0000 <S**2>= 0.0000 S= 0.0000
 ExpMin= 9.52D-02 ExpMax= 2.70D+04 ExpMxC= 9.22D+02 IAcc=2 IRadAn=         4 AccDes= 0.00D+00
 Harris functional with IExCor= 4639 and IRadAn=       4 diagonalized for initial guess.
 HarFok:  IExCor= 4639 AccDes= 0.00D+00 IRadAn=         4 IDoV= 1 UseB2=F ITyADJ=14
 ICtDFT=  3500011 ScaDFX=  1.000000  1.000000  1.000000  1.000000
 FoFCou: FMM=F IPFlag=           0 FMFlag=      100000 FMFlg1=           0
         NFxFlg=           0 DoJE=T BraDBF=F KetDBF=T FulRan=T
         wScrn=  0.000000 ICntrl=       500 IOpCl=  0 I1Cent=   200000004 NGrid=           0
         NMat0=    1 NMatS0=      1 NMatT0=    0 NMatD0=    1 NMtDS0=    0 NMtDT0=    0
 Petite list used in FoFCou.
 Requested convergence on RMS density matrix=1.00D-08 within 128 cycles.
 Requested convergence on MAX density matrix=1.00D-06.
 Requested convergence on             energy=1.00D-06.
 No special actions if energy rises.
 Integral accuracy reduced to 1.0D-05 until final iterations.
 Initial convergence to 1.0D-05 achieved.  Increase integral accuracy.
 SCF Done:  E(UwB97XD) =  -371.538172648     A.U. after   16 cycles
            NFock= 16  Conv=0.41D-08     -V/T= 2.0039
 <Sx>= 0.0000 <Sy>= 0.0000 <Sz>= 0.0000 <S**2>=-0.0000 S=-0.0000
 <L.S>=  0.00000000000    
 Annihilation of the first spin contaminant:
 S**2 before annihilation    -0.0000,   after    -0.0000
   1 Symmetry operations used in ECPInt.
 ECPInt:  NShTT=    3655 NPrTT=   11788 LenC2=    3432 LenP2D=    8550.
 LDataN:  DoStor=T MaxTD1= 7 Len=  274
 Calling FoFJK, ICntrl=      2127 FMM=F ISym2X=0 I1Cent= 0 IOpClX= 1 NMat=1 NMatS=1 NMatT=0.
 ***** Axes restored to original set *****
 -------------------------------------------------------------------
 Center     Atomic                   Forces (Hartrees/Bohr)
 Number     Number              X              Y              Z
 -------------------------------------------------------------------
      1        7           0.000026441    0.000468193   -0.003952169
      2        6          -0.001932119   -0.000197098    0.003058792
      3        7          -0.000201638    0.000182302    0.000001572
      4        7          -0.000032384   -0.000117812   -0.000001363
      5        8           0.001488615   -0.000008544   -0.000066214
      6        7          -0.001276614    0.000674866    0.000073059
      7        6           0.001678998   -0.000734727   -0.000676609
      8        1           0.000540214   -0.000436126    0.001651014
      9        1          -0.000291514    0.000168946   -0.000088080
 -------------------------------------------------------------------
 Cartesian Forces:  Max     0.003952169 RMS     0.001224946

 GradGradGradGradGradGradGradGradGradGradGradGradGradGradGradGradGradGrad
 Berny optimization.
 Using GEDIIS/GDIIS optimizer.
 FormGI is forming the generalized inverse of G from B-inverse, IUseBI=4.
 Internal  Forces:  Max     0.003089809 RMS     0.000984710
 Search for a local minimum.
 Step number   5 out of a maximum of   34
 All quantities printed in internal units (Hartrees-Bohrs-Radians)
 Mixed Optimization -- En-DIIS/RFO-DIIS
 Update second derivatives using D2CorX and points    1    2    3    4    5
 DE= -3.16D-04 DEPred=-2.84D-04 R= 1.11D+00
 TightC=F SS=  1.41D+00  RLast= 1.45D-01 DXNew= 1.4270D+00 4.3552D-01
 Trust test= 1.11D+00 RLast= 1.45D-01 DXMaxT set to 8.49D-01
 ITU=  1  1  1  1  0
 Use linear search instead of GDIIS.
     Eigenvalues ---    0.00230   0.00271   0.00466   0.01318   0.01662
     Eigenvalues ---    0.01709   0.02808   0.03633   0.09078   0.15992
     Eigenvalues ---    0.16869   0.24020   0.24946   0.36799   0.37657
     Eigenvalues ---    0.49892   0.52193   0.57560   1.03126   1.31376
     Eigenvalues ---    1.89784
 RFO step:  Lambda=-1.06824832D-03 EMin= 2.29526739D-03
 Quartic linear search produced a step of  0.20015.
 Iteration  1 RMS(Cart)=  0.08824251 RMS(Int)=  0.06020772
 Iteration  2 RMS(Cart)=  0.05774384 RMS(Int)=  0.02014076
 Iteration  3 RMS(Cart)=  0.02641481 RMS(Int)=  0.00125391
 Iteration  4 RMS(Cart)=  0.00111733 RMS(Int)=  0.00000855
 Iteration  5 RMS(Cart)=  0.00000065 RMS(Int)=  0.00000853
 Variable       Old X    -DE/DX   Delta X   Delta X   Delta X     New X
                                 (Linear)    (Quad)   (Total)
    R1        2.19799  -0.00004   0.00073   0.00561   0.00633   2.20433
    R2        1.87626  -0.00040   0.00066   0.00514   0.00580   1.88206
    R3        2.54755   0.00012  -0.00026  -0.00124  -0.00149   2.54605
    R4        2.05562  -0.00004  -0.00003  -0.00035  -0.00038   2.05524
    R5        5.59721   0.00025   0.00514   0.15592   0.16106   5.75827
    R6        2.30279   0.00102  -0.00057  -0.00005  -0.00062   2.30217
    R7        2.62440   0.00001  -0.00137  -0.01932  -0.02069   2.60371
    R8        2.03405   0.00021   0.00007   0.00329   0.00336   2.03741
    A1        3.09250  -0.00208  -0.00329   0.04334   0.04005   3.13255
    A2        2.87868   0.00023   0.00020   0.00673   0.00693   2.88561
    A3        2.03888   0.00250  -0.00222  -0.02809  -0.03031   2.00857
    A4        2.08367   0.00070  -0.00040   0.01489   0.01449   2.09815
[...]
       Occupied  (A) (A) (A) (A) (A) (A) (A) (A) (A) (A) (A) (A)
                 (A) (A) (A) (A) (A) (A) (A) (A) (A) (A) (A) (A)
                 (A)
       Virtual   (A) (A) (A) (A) (A) (A) (A) (A) (A) (A) (A) (A)
                 (A) (A) (A) (A) (A) (A) (A) (A) (A) (A) (A) (A)
                 (A) (A) (A) (A) (A) (A) (A) (A) (A) (A) (A) (A)
                 (A) (A) (A) (A) (A) (A) (A) (A) (A) (A) (A) (A)
                 (A) (A) (A) (A) (A) (A) (A) (A) (A) (A) (A) (A)
                 (A) (A) (A) (A) (A) (A) (A) (A) (A) (A) (A) (A)
                 (A) (A) (A) (A) (A) (A) (A) (A) (A) (A) (A) (A)
                 (A) (A) (A) (A) (A) (A) (A) (A) (A) (A) (A) (A)
                 (A) (A) (A) (A) (A) (A) (A) (A) (A) (A) (A) (A)
                 (A) (A) (A) (A) (A) (A) (A) (A) (A) (A) (A) (A)
                 (A) (A) (A) (A) (A) (A) (A) (A) (A) (A) (A) (A)
                 (A) (A) (A) (A) (A) (A) (A) (A) (A) (A) (A) (A)
                 (A) (A) (A) (A) (A) (A) (A) (A) (A) (A) (A) (A)
                 (A) (A) (A) (A) (A) (A) (A) (A) (A) (A) (A) (A)
                 (A) (A) (A) (A) (A) (A) (A) (A) (A) (A) (A) (A)
                 (A) (A) (A) (A) (A) (A) (A) (A) (A) (A) (A) (A)
                 (A) (A) (A) (A) (A) (A) (A) (A) (A) (A) (A) (A)
 Beta  Orbitals:
       Occupied  (A) (A) (A) (A) (A) (A) (A) (A) (A) (A) (A) (A)
                 (A) (A) (A) (A) (A) (A) (A) (A) (A) (A) (A) (A)
                 (A)
       Virtual   (A) (A) (A) (A) (A) (A) (A) (A) (A) (A) (A) (A)
                 (A) (A) (A) (A) (A) (A) (A) (A) (A) (A) (A) (A)
                 (A) (A) (A) (A) (A) (A) (A) (A) (A) (A) (A) (A)
                 (A) (A) (A) (A) (A) (A) (A) (A) (A) (A) (A) (A)
                 (A) (A) (A) (A) (A) (A) (A) (A) (A) (A) (A) (A)
                 (A) (A) (A) (A) (A) (A) (A) (A) (A) (A) (A) (A)
                 (A) (A) (A) (A) (A) (A) (A) (A) (A) (A) (A) (A)
                 (A) (A) (A) (A) (A) (A) (A) (A) (A) (A) (A) (A)
                 (A) (A) (A) (A) (A) (A) (A) (A) (A) (A) (A) (A)
                 (A) (A) (A) (A) (A) (A) (A) (A) (A) (A) (A) (A)
                 (A) (A) (A) (A) (A) (A) (A) (A) (A) (A) (A) (A)
                 (A) (A) (A) (A) (A) (A) (A) (A) (A) (A) (A) (A)
                 (A) (A) (A) (A) (A) (A) (A) (A) (A) (A) (A) (A)
                 (A) (A) (A) (A) (A) (A) (A) (A) (A) (A) (A) (A)
                 (A) (A) (A) (A) (A) (A) (A) (A) (A) (A) (A) (A)
                 (A) (A) (A) (A) (A) (A) (A) (A) (A) (A) (A) (A)
                 (A) (A) (A) (A) (A) (A) (A) (A) (A) (A) (A) (A)
 The electronic state is 1-A.
 Alpha  occ. eigenvalues --  -19.28567 -14.54788 -14.54687 -14.54586 -14.49740
 Alpha  occ. eigenvalues --  -10.40289 -10.32921  -1.25229  -1.24529  -1.08595
 Alpha  occ. eigenvalues --   -0.92755  -0.78609  -0.70111  -0.65837  -0.61889
 Alpha  occ. eigenvalues --   -0.60091  -0.57055  -0.57033  -0.55138  -0.53535
 Alpha  occ. eigenvalues --   -0.50892  -0.49586  -0.47749  -0.34897  -0.30831
 Alpha virt. eigenvalues --   -0.02205   0.02597   0.04533   0.04641   0.09482
 Alpha virt. eigenvalues --    0.12253   0.16241   0.19904   0.23757   0.26872
 Alpha virt. eigenvalues --    0.28230   0.29789   0.31747   0.33334   0.35221
 Alpha virt. eigenvalues --    0.36423   0.37424   0.38214   0.41488   0.43226
 Alpha virt. eigenvalues --    0.43442   0.44257   0.46130   0.47230   0.48197
 Alpha virt. eigenvalues --    0.49644   0.50848   0.52526   0.54646   0.55638
 Alpha virt. eigenvalues --    0.57037   0.58383   0.59060   0.60504   0.64147
 Alpha virt. eigenvalues --    0.66088   0.66686   0.69960   0.72138   0.75630
 Alpha virt. eigenvalues --    0.80393   0.84541   0.86784   0.89143   0.90506
 Alpha virt. eigenvalues --    0.90932   0.92137   0.96997   1.07358   1.08432
 Alpha virt. eigenvalues --    1.15530   1.16819   1.17708   1.18861   1.21220
 Alpha virt. eigenvalues --    1.22764   1.28065   1.32383   1.34093   1.34731
 Alpha virt. eigenvalues --    1.35325   1.41927   1.42692   1.47681   1.49358
 Alpha virt. eigenvalues --    1.51755   1.54879   1.56375   1.59576   1.64573
 Alpha virt. eigenvalues --    1.65812   1.70246   1.72128   1.74124   1.74619
 Alpha virt. eigenvalues --    1.75979   1.80767   1.84586   1.87903   1.91349
 Alpha virt. eigenvalues --    2.00340   2.01380   2.03613   2.05545   2.06942
 Alpha virt. eigenvalues --    2.08306   2.09679   2.11279   2.14652   2.16510
 Alpha virt. eigenvalues --    2.19179   2.21951   2.26594   2.30428   2.33929
 Alpha virt. eigenvalues --    2.35646   2.37249   2.44904   2.52414   2.53559
 Alpha virt. eigenvalues --    2.63706   2.64328   2.65816   2.67973   2.69268
 Alpha virt. eigenvalues --    2.73848   2.78297   2.82167   2.83981   2.86613
 Alpha virt. eigenvalues --    2.88999   2.92451   2.99979   3.00692   3.02634
 Alpha virt. eigenvalues --    3.03596   3.07360   3.09490   3.14077   3.18241
 Alpha virt. eigenvalues --    3.21425   3.26535   3.33328   3.35298   3.46717
 Alpha virt. eigenvalues --    3.51106   3.53975   3.54237   3.56488   3.65717
 Alpha virt. eigenvalues --    3.67046   3.67063   3.68177   3.69563   3.71458
 Alpha virt. eigenvalues --    3.75112   3.82579   3.92984   4.02531   4.11525
 Alpha virt. eigenvalues --    4.15874   4.16174   4.16184   4.19618   4.22216
 Alpha virt. eigenvalues --    4.22813   4.30120   4.33988   4.42678   4.42998
 Alpha virt. eigenvalues --    4.50588   4.56114   4.56495   4.58328   4.58750
 Alpha virt. eigenvalues --    4.59570   4.61303   4.64938   4.71654   4.73146
 Alpha virt. eigenvalues --    4.74707   4.81131   4.84749   4.96472   5.01043
 Alpha virt. eigenvalues --    5.01054   5.03005   5.05760   5.08339   5.08573
 Alpha virt. eigenvalues --    5.08778   5.11457   5.21205   5.22300   5.26488
 Alpha virt. eigenvalues --    5.27690   5.43211   5.44812   5.50830   5.64651
 Alpha virt. eigenvalues --    5.68605   5.73848   5.77173   5.82616   6.09113
 Alpha virt. eigenvalues --    6.27207   6.35486   6.35917   6.36277   6.40322
 Alpha virt. eigenvalues --    6.42143   6.61223   6.64577   6.96712   7.08549
 Alpha virt. eigenvalues --    7.20435   7.51821  22.79130  23.40532  31.32856
 Alpha virt. eigenvalues --   32.14904  32.16337  32.18952  43.97226
  Beta  occ. eigenvalues --  -19.28567 -14.54788 -14.54687 -14.54586 -14.49740
  Beta  occ. eigenvalues --  -10.40289 -10.32921  -1.25229  -1.24529  -1.08595
  Beta  occ. eigenvalues --   -0.92755  -0.78609  -0.70111  -0.65837  -0.61889
  Beta  occ. eigenvalues --   -0.60091  -0.57055  -0.57033  -0.55138  -0.53535
  Beta  occ. eigenvalues --   -0.50892  -0.49586  -0.47749  -0.34897  -0.30831
  Beta virt. eigenvalues --   -0.02205   0.02597   0.04533   0.04641   0.09482
  Beta virt. eigenvalues --    0.12253   0.16241   0.19904   0.23757   0.26872
  Beta virt. eigenvalues --    0.28230   0.29789   0.31747   0.33334   0.35221
  Beta virt. eigenvalues --    0.36423   0.37424   0.38214   0.41488   0.43226
  Beta virt. eigenvalues --    0.43442   0.44257   0.46130   0.47230   0.48197
  Beta virt. eigenvalues --    0.49644   0.50848   0.52526   0.54646   0.55638
  Beta virt. eigenvalues --    0.57037   0.58383   0.59060   0.60504   0.64147
  Beta virt. eigenvalues --    0.66088   0.66686   0.69960   0.72138   0.75630
  Beta virt. eigenvalues --    0.80393   0.84541   0.86784   0.89143   0.90506
  Beta virt. eigenvalues --    0.90932   0.92137   0.96997   1.07358   1.08432
  Beta virt. eigenvalues --    1.15530   1.16819   1.17708   1.18861   1.21220
  Beta virt. eigenvalues --    1.22764   1.28065   1.32383   1.34093   1.34731
  Beta virt. eigenvalues --    1.35325   1.41927   1.42692   1.47681   1.49358
  Beta virt. eigenvalues --    1.51755   1.54879   1.56375   1.59576   1.64573
  Beta virt. eigenvalues --    1.65812   1.70246   1.72128   1.74124   1.74619
  Beta virt. eigenvalues --    1.75979   1.80767   1.84586   1.87903   1.91349
  Beta virt. eigenvalues --    2.00340   2.01380   2.03613   2.05545   2.06942
  Beta virt. eigenvalues --    2.08306   2.09679   2.11279   2.14652   2.16510
  Beta virt. eigenvalues --    2.19179   2.21951   2.26594   2.30428   2.33929
  Beta virt. eigenvalues --    2.35646   2.37249   2.44904   2.52414   2.53559
  Beta virt. eigenvalues --    2.63706   2.64328   2.65816   2.67973   2.69268
  Beta virt. eigenvalues --    2.73848   2.78297   2.82167   2.83981   2.86613
  Beta virt. eigenvalues --    2.88999   2.92451   2.99979   3.00692   3.02634
  Beta virt. eigenvalues --    3.03596   3.07360   3.09490   3.14077   3.18241
  Beta virt. eigenvalues --    3.21425   3.26535   3.33328   3.35298   3.46717
  Beta virt. eigenvalues --    3.51106   3.53975   3.54237   3.56488   3.65717
  Beta virt. eigenvalues --    3.67046   3.67063   3.68177   3.69563   3.71458
  Beta virt. eigenvalues --    3.75112   3.82579   3.92984   4.02531   4.11525
  Beta virt. eigenvalues --    4.15874   4.16174   4.16184   4.19618   4.22216
  Beta virt. eigenvalues --    4.22813   4.30120   4.33988   4.42678   4.42998
  Beta virt. eigenvalues --    4.50588   4.56114   4.56495   4.58328   4.58750
  Beta virt. eigenvalues --    4.59570   4.61303   4.64938   4.71654   4.73146
  Beta virt. eigenvalues --    4.74707   4.81131   4.84749   4.96472   5.01043
  Beta virt. eigenvalues --    5.01054   5.03005   5.05760   5.08339   5.08573
  Beta virt. eigenvalues --    5.08778   5.11457   5.21205   5.22300   5.26488
  Beta virt. eigenvalues --    5.27690   5.43211   5.44812   5.50830   5.64651
  Beta virt. eigenvalues --    5.68605   5.73848   5.77173   5.82616   6.09113
  Beta virt. eigenvalues --    6.27207   6.35486   6.35917   6.36277   6.40322
  Beta virt. eigenvalues --    6.42143   6.61223   6.64577   6.96712   7.08549
  Beta virt. eigenvalues --    7.20435   7.51821  22.79130  23.40532  31.32856
  Beta virt. eigenvalues --   32.14904  32.16337  32.18952  43.97226
          Condensed to atoms (all electrons):
               1          2          3          4          5          6
     1  N    6.264072   0.658845  -0.001785  -0.000118  -0.006337   0.002178
     2  C    0.658845   4.884125  -0.004675   0.000385   0.022231  -0.045011
     3  N   -0.001785  -0.004675   6.322100   0.666497   0.000004  -0.000028
     4  N   -0.000118   0.000385   0.666497   6.341846   0.000000  -0.000003
     5  O   -0.006337   0.022231   0.000004   0.000000   8.134489   0.241847
     6  N    0.002178  -0.045011  -0.000028  -0.000003   0.241847   6.431767
     7  C   -0.047022   0.483733   0.004878   0.000235  -0.108927   0.328057
     8  H    0.350416  -0.051393  -0.000072   0.000019   0.000079  -0.000018
     9  H    0.000113  -0.041518   0.002950  -0.000025   0.003267  -0.024588
               7          8          9
     1  N   -0.047022   0.350416   0.000113
     2  C    0.483733  -0.051393  -0.041518
     3  N    0.004878  -0.000072   0.002950
     4  N    0.000235   0.000019  -0.000025
     5  O   -0.108927   0.000079   0.003267
     6  N    0.328057  -0.000018  -0.024588
     7  C    5.040269  -0.004800   0.423572
     8  H   -0.004800   0.416284  -0.000141
     9  H    0.423572  -0.000141   0.459360
          Atomic-Atomic Spin Densities.
               1          2          3          4          5          6
     1  N   -0.000000   0.000000   0.000000  -0.000000  -0.000000   0.000000
     2  C    0.000000  -0.000000   0.000000  -0.000000  -0.000000  -0.000000
     3  N    0.000000   0.000000   0.000000  -0.000000  -0.000000   0.000000
     4  N   -0.000000  -0.000000  -0.000000   0.000000   0.000000  -0.000000
     5  O   -0.000000  -0.000000  -0.000000   0.000000  -0.000000   0.000000
     6  N    0.000000  -0.000000   0.000000  -0.000000   0.000000  -0.000000
     7  C   -0.000000   0.000000  -0.000000   0.000000   0.000000   0.000000
     8  H    0.000000  -0.000000   0.000000  -0.000000  -0.000000   0.000000
     9  H    0.000000   0.000000  -0.000000  -0.000000  -0.000000   0.000000
               7          8          9
     1  N   -0.000000   0.000000   0.000000
     2  C    0.000000  -0.000000   0.000000
     3  N   -0.000000   0.000000  -0.000000
     4  N    0.000000  -0.000000  -0.000000
     5  O    0.000000  -0.000000  -0.000000
     6  N    0.000000   0.000000   0.000000
     7  C   -0.000000  -0.000000  -0.000000
     8  H   -0.000000   0.000000   0.000000
     9  H   -0.000000   0.000000  -0.000000
 Mulliken charges and spin densities:
               1          2
     1  N   -0.220362  -0.000000
     2  C    0.093279   0.000000
     3  N    0.010130  -0.000000
     4  N   -0.008835   0.000000
     5  O   -0.286654   0.000000
     6  N    0.065800  -0.000000
     7  C   -0.119995  -0.000000
     8  H    0.289627  -0.000000
     9  H    0.177010  -0.000000
 Sum of Mulliken charges =  -0.00000  -0.00000
 Mulliken charges and spin densities with hydrogens summed into heavy atoms:
               1          2
     1  N    0.069265  -0.000000
     2  C    0.093279   0.000000
     3  N    0.010130  -0.000000
     4  N   -0.008835   0.000000
     5  O   -0.286654   0.000000
     6  N    0.065800  -0.000000
     7  C    0.057015  -0.000000
 Electronic spatial extent (au):  <R**2>=           1201.3965
 Charge=             -0.0000 electrons
 Dipole moment (field-independent basis, Debye):
    X=             -3.2264    Y=              1.6191    Z=              1.7903  Tot=              4.0294
 Quadrupole moment (field-independent basis, Debye-Ang):
   XX=            -49.7466   YY=            -34.2490   ZZ=            -37.8975
   XY=              3.1917   XZ=              0.5744   YZ=              3.2963
 Traceless Quadrupole moment (field-independent basis, Debye-Ang):
   XX=             -9.1156   YY=              6.3821   ZZ=              2.7335
   XY=              3.1917   XZ=              0.5744   YZ=              3.2963
 Octapole moment (field-independent basis, Debye-Ang**2):
  XXX=            -25.6004  YYY=             17.7746  ZZZ=             -0.7076  XYY=             -3.9556
  XXY=              3.1273  XXZ=              5.5546  XZZ=              0.7341  YZZ=              1.3213
  YYZ=              9.3625  XYZ=              0.3492
 Hexadecapole moment (field-independent basis, Debye-Ang**3):
 XXXX=          -1358.6006 YYYY=           -198.9551 ZZZZ=            -44.3738 XXXY=             25.0564
 XXXZ=             -4.9776 YYYX=             17.2813 YYYZ=             23.2910 ZZZX=             -2.7027
 ZZZY=              4.3913 XXYY=           -246.8929 XXZZ=           -202.3144 YYZZ=            -43.9307
 XXYZ=              1.3451 YYXZ=              0.6718 ZZXY=              1.0646
 N-N= 2.273220793184D+02 E-N=-1.324458547280D+03  KE= 3.701178614706D+02
                          Isotropic Fermi Contact Couplings
        Atom                 a.u.       MegaHertz       Gauss      10(-4) cm-1
     1  N(14)             -0.00000      -0.00000      -0.00000      -0.00000
     2  C(13)              0.00000       0.00000       0.00000       0.00000
     3  N(14)              0.00000       0.00000       0.00000       0.00000
     4  N(14)              0.00000       0.00000       0.00000       0.00000
     5  O(17)             -0.00000       0.00000       0.00000       0.00000
     6  N(14)             -0.00000      -0.00000      -0.00000      -0.00000
     7  C(13)             -0.00000      -0.00000      -0.00000      -0.00000
     8  H(1)              -0.00000      -0.00000      -0.00000      -0.00000
     9  H(1)              -0.00000      -0.00000      -0.00000      -0.00000
 --------------------------------------------------------
       Center         ----  Spin Dipole Couplings  ----
                      3XX-RR        3YY-RR        3ZZ-RR
 --------------------------------------------------------
     1   Atom        0.000000     -0.000000      0.000000
     2   Atom       -0.000000      0.000000     -0.000000
     3   Atom       -0.000000      0.000000      0.000000
     4   Atom        0.000000     -0.000000     -0.000000
     5   Atom       -0.000000      0.000000     -0.000000
     6   Atom       -0.000000     -0.000000      0.000000
     7   Atom        0.000000     -0.000000      0.000000
     8   Atom       -0.000000      0.000000      0.000000
     9   Atom        0.000000     -0.000000      0.000000
 --------------------------------------------------------
                        XY            XZ            YZ
 --------------------------------------------------------
     1   Atom        0.000000     -0.000000      0.000000
     2   Atom       -0.000000     -0.000000      0.000000
     3   Atom        0.000000     -0.000000      0.000000
     4   Atom       -0.000000      0.000000     -0.000000
     5   Atom        0.000000     -0.000000     -0.000000
     6   Atom       -0.000000      0.000000      0.000000
     7   Atom        0.000000     -0.000000      0.000000
     8   Atom       -0.000000      0.000000      0.000000
     9   Atom        0.000000      0.000000      0.000000
 --------------------------------------------------------


 ---------------------------------------------------------------------------------
              Anisotropic Spin Dipole Couplings in Principal Axis System
 ---------------------------------------------------------------------------------

       Atom             a.u.   MegaHertz   Gauss  10(-4) cm-1        Axes

              Baa    -0.0000    -0.000    -0.000    -0.000 -0.0388  0.9883 -0.1472
     1 N(14)  Bbb     0.0000     0.000     0.000     0.000  0.0062  0.1476  0.9890
              Bcc     0.0000     0.000     0.000     0.000  0.9992  0.0375 -0.0119
 
              Baa    -0.0000    -0.000    -0.000    -0.000  0.9530  0.2350  0.1910
     2 C(13)  Bbb    -0.0000    -0.000    -0.000    -0.000 -0.1540 -0.1669  0.9739
              Bcc     0.0000     0.000     0.000     0.000 -0.2607  0.9576  0.1228
 
              Baa    -0.0000    -0.000    -0.000    -0.000  0.8814 -0.2740  0.3847
     3 N(14)  Bbb     0.0000     0.000     0.000     0.000  0.2739  0.9601  0.0563
              Bcc     0.0000     0.000     0.000     0.000 -0.3848  0.0558  0.9213
 
              Baa    -0.0000    -0.000    -0.000    -0.000 -0.2917  0.1788  0.9396
     4 N(14)  Bbb    -0.0000    -0.000    -0.000    -0.000  0.3013  0.9495 -0.0872
              Bcc     0.0000     0.000     0.000     0.000  0.9078 -0.2577  0.3309
 
              Baa    -0.0000     0.000     0.000     0.000  0.9560 -0.2848  0.0704
     5 O(17)  Bbb    -0.0000     0.000     0.000     0.000 -0.0543  0.0640  0.9965
              Bcc     0.0000    -0.000    -0.000    -0.000  0.2883  0.9564 -0.0457
 
              Baa    -0.0000    -0.000    -0.000    -0.000  0.4649  0.8427 -0.2714
     6 N(14)  Bbb    -0.0000    -0.000    -0.000    -0.000  0.8748 -0.4845 -0.0061
              Bcc     0.0000     0.000     0.000     0.000  0.1366  0.2345  0.9625
 
              Baa    -0.0000    -0.000    -0.000    -0.000 -0.3243  0.9406 -0.1003
     7 C(13)  Bbb     0.0000     0.000     0.000     0.000  0.2827  0.1976  0.9386
              Bcc     0.0000     0.000     0.000     0.000  0.9027  0.2761 -0.3300
 
              Baa    -0.0000    -0.000    -0.000    -0.000  0.8673  0.3585 -0.3453
     8 H(1)   Bbb    -0.0000    -0.000    -0.000    -0.000 -0.4978  0.6213 -0.6051
              Bcc     0.0000     0.000     0.000     0.000 -0.0024  0.6967  0.7173
 
              Baa    -0.0000    -0.000    -0.000    -0.000  0.0006  0.9889 -0.1484
     9 H(1)   Bbb     0.0000     0.000     0.000     0.000  0.9066 -0.0632 -0.4173
              Bcc     0.0000     0.000     0.000     0.000  0.4221  0.1343  0.8965
 

 ---------------------------------------------------------------------------------



 IF IT'S NOT TRUE, IT'S WELL INVENTED -- DANTE
 Error termination request processed by link 9999.
 Error termination via Lnk1e in /software/kemi/g16/avx2/g16/l9999.exe at Wed Jun 23 10:20:06 2021.
 Job cpu time:       0 days  8 hours 36 minutes 22.4 seconds.
 Elapsed time:       0 days  2 hours 12 minutes 16.1 seconds.
 File lengths (MBytes):  RWF=     63 Int=      0 D2E=      0 Chk=      6 Scr=      1
