 Entering Gaussian System, Link 0=/software/kemi/g16/avx2/g16/g16
 Initial command:
 /software/kemi/g16/avx2/g16/l1.exe "/scratch/23935644/Gau-14303.inp" -scrdir="/scratch/23935644/"
 Entering Link 1 = /software/kemi/g16/avx2/g16/l1.exe PID=     14304.
  
 Copyright (c) 1988,1990,1992,1993,1995,1998,2003,2009,2016,
            Gaussian, Inc.  All Rights Reserved.
  
 This is part of the Gaussian(R) 16 program.  It is based on
 the Gaussian(R) 09 system (copyright 2009, Gaussian, Inc.),
 the Gaussian(R) 03 system (copyright 2003, Gaussian, Inc.),
 the Gaussian(R) 98 system (copyright 1998, Gaussian, Inc.),
 the Gaussian(R) 94 system (copyright 1995, Gaussian, Inc.),
 the Gaussian 92(TM) system (copyright 1992, Gaussian, Inc.),
 the Gaussian 90(TM) system (copyright 1990, Gaussian, Inc.),
 the Gaussian 88(TM) system (copyright 1988, Gaussian, Inc.),
 the Gaussian 86(TM) system (copyright 1986, Carnegie Mellon
 University), and the Gaussian 82(TM) system (copyright 1983,
 Carnegie Mellon University). Gaussian is a federally registered
 trademark of Gaussian, Inc.
  
 This software contains proprietary and confidential information,
 including trade secrets, belonging to Gaussian, Inc.
  
 This software is provided under written license and may be
 used, copied, transmitted, or stored only in accord with that
 written license.
  
 The following legend is applicable only to US Government
 contracts under FAR:
  
                    RESTRICTED RIGHTS LEGEND
  
 Use, reproduction and disclosure by the US Government is
 subject to restrictions as set forth in subparagraphs (a)
 and (c) of the Commercial Computer Software - Restricted
 Rights clause in FAR 52.227-19.
  
 Gaussian, Inc.
 340 Quinnipiac St., Bldg. 40, Wallingford CT 06492
  
  
 ---------------------------------------------------------------
 Warning -- This program may not be used in any manner that
 competes with the business of Gaussian, Inc. or will provide
 assistance to any competitor of Gaussian, Inc.  The licensee
 of this program is prohibited from giving any competitor of
 Gaussian, Inc. access to this program.  By using this program,
 the user acknowledges that Gaussian, Inc. is engaged in the
 business of creating and licensing software in the field of
 computational chemistry and represents and warrants to the
 licensee that it is not a competitor of Gaussian, Inc. and that
 it will not use this program in any manner prohibited above.
 ---------------------------------------------------------------
  

 Cite this work as:
 Gaussian 16, Revision A.03,
 M. J. Frisch, G. W. Trucks, H. B. Schlegel, G. E. Scuseria, 
 M. A. Robb, J. R. Cheeseman, G. Scalmani, V. Barone, 
 G. A. Petersson, H. Nakatsuji, X. Li, M. Caricato, A. V. Marenich, 
 J. Bloino, B. G. Janesko, R. Gomperts, B. Mennucci, H. P. Hratchian, 
 J. V. Ortiz, A. F. Izmaylov, J. L. Sonnenberg, D. Williams-Young, 
 F. Ding, F. Lipparini, F. Egidi, J. Goings, B. Peng, A. Petrone, 
 T. Henderson, D. Ranasinghe, V. G. Zakrzewski, J. Gao, N. Rega, 
 G. Zheng, W. Liang, M. Hada, M. Ehara, K. Toyota, R. Fukuda, 
 J. Hasegawa, M. Ishida, T. Nakajima, Y. Honda, O. Kitao, H. Nakai, 
 T. Vreven, K. Throssell, J. A. Montgomery, Jr., J. E. Peralta, 
 F. Ogliaro, M. J. Bearpark, J. J. Heyd, E. N. Brothers, K. N. Kudin, 
 V. N. Staroverov, T. A. Keith, R. Kobayashi, J. Normand, 
 K. Raghavachari, A. P. Rendell, J. C. Burant, S. S. Iyengar, 
 J. Tomasi, M. Cossi, J. M. Millam, M. Klene, C. Adamo, R. Cammi, 
 J. W. Ochterski, R. L. Martin, K. Morokuma, O. Farkas, 
 J. B. Foresman, and D. J. Fox, Gaussian, Inc., Wallingford CT, 2016.
 
 ******************************************
 Gaussian 16:  ES64L-G16RevA.03 25-Dec-2016
                22-Jun-2021 
 ******************************************
 %nprocshared=4
 Will use up to    4 processors via shared memory.
 %mem=8GB
 ------------------
 # UwB97XD/Def2TZVP
 ------------------
 1/38=1,172=1/1;
 2/12=2,17=6,18=5,40=1/2;
 3/5=44,7=101,11=2,25=1,30=1,74=-58,116=2/1,2,3;
 4//1;
 5/5=2,38=5/2;
 6/7=2,8=2,9=2,10=2,28=1/1;
 99/5=1,9=1/99;
 ---------------
 something title
 ---------------
 Symbolic Z-matrix:
 Charge =  0 Multiplicity = 1
 N                    -0.50447  -0.16335  -1.28851 
 C                    -0.44521  -0.86908  -0.21131 
 N                    -1.53741  -1.09958   0.5316 
 N                    -2.62829  -1.38466   0.72073 
 O                     3.06808  -1.39477  -0.29658 
 N                     1.85992  -1.35751  -0.27946 
 C                     0.81933  -1.22817   0.42515 
 H                    -1.41542   0.21882  -1.54108 
 H                     0.75955  -1.53369   1.46178 
 
                          Input orientation:                          
 ---------------------------------------------------------------------
 Center     Atomic      Atomic             Coordinates (Angstroms)
 Number     Number       Type             X           Y           Z
 ---------------------------------------------------------------------
      1          7           0       -0.504467   -0.163345   -1.288513
      2          6           0       -0.445210   -0.869077   -0.211307
      3          7           0       -1.537413   -1.099578    0.531604
      4          7           0       -2.628294   -1.384659    0.720732
      5          8           0        3.068084   -1.394765   -0.296578
      6          7           0        1.859917   -1.357505   -0.279462
      7          6           0        0.819331   -1.228172    0.425148
      8          1           0       -1.415420    0.218821   -1.541081
      9          1           0        0.759545   -1.533685    1.461778
 ---------------------------------------------------------------------
                    Distance matrix (angstroms):
                    1          2          3          4          5
     1  N    0.000000
     2  C    1.289163   0.000000
     3  N    2.292670   1.340878   0.000000
     4  N    3.168488   2.429069   1.143268   0.000000
     5  O    3.906847   3.553428   4.688670   5.786514   0.000000
     6  N    2.834522   2.357290   3.502314   4.598387   1.208863
     7  C    2.413075   1.460510   2.362649   3.463809   2.367600
     8  H    1.019645   1.973101   2.459488   3.026220   4.924861
     9  H    3.322598   2.166184   2.515887   3.471140   2.905248
                    6          7          8          9
     6  N    0.000000
     7  C    1.263337   0.000000
     8  H    3.847638   3.309676   0.000000
     9  H    2.067311   1.082365   4.101087   0.000000
 Stoichiometry    C2H2N4O
 Framework group  C1[X(C2H2N4O)]
 Deg. of freedom    21
 Full point group                 C1      NOp   1
 Largest Abelian subgroup         C1      NOp   1
 Largest concise Abelian subgroup C1      NOp   1
                         Standard orientation:                         
 ---------------------------------------------------------------------
 Center     Atomic      Atomic             Coordinates (Angstroms)
 Number     Number       Type             X           Y           Z
 ---------------------------------------------------------------------
      1          7           0       -0.541869    1.550677    0.036909
      2          6           0       -0.564717    0.261850    0.018322
      3          7           0       -1.719851   -0.415589    0.086851
      4          7           0       -2.804516   -0.656499   -0.182455
      5          8           0        2.960700   -0.177738   -0.052772
      6          7           0        1.759173   -0.093311   -0.155504
      7          6           0        0.636244   -0.548808    0.201671
      8          1           0       -1.439468    2.027675    0.117319
      9          1           0        0.474144   -1.580972    0.484292
 ---------------------------------------------------------------------
 Rotational constants (GHZ):           9.1029461           1.4359190           1.2507575
 Standard basis: def2TZVP (5D, 7F)
 There are   264 symmetry adapted cartesian basis functions of A   symmetry.
 There are   229 symmetry adapted basis functions of A   symmetry.
   229 basis functions,   373 primitive gaussians,   264 cartesian basis functions
    25 alpha electrons       25 beta electrons
       nuclear repulsion energy       256.0303722125 Hartrees.
 NAtoms=    9 NActive=    9 NUniq=    9 SFac= 1.00D+00 NAtFMM=   60 NAOKFM=F Big=F
 Integral buffers will be    131072 words long.
 Raffenetti 2 integral format.
 Two-electron integral symmetry is turned on.
 Nuclear repulsion after empirical dispersion term =      256.0278439243 Hartrees.
 One-electron integrals computed using PRISM.
   1 Symmetry operations used in ECPInt.
 ECPInt:  NShTT=    3655 NPrTT=   11788 LenC2=    3519 LenP2D=    9052.
 LDataN:  DoStor=T MaxTD1= 6 Len=  172
 NBasis=   229 RedAO= T EigKep=  1.94D-04  NBF=   229
 NBsUse=   229 1.00D-06 EigRej= -1.00D+00 NBFU=   229
 ExpMin= 9.52D-02 ExpMax= 2.70D+04 ExpMxC= 9.22D+02 IAcc=3 IRadAn=         5 AccDes= 0.00D+00
 Harris functional with IExCor= 4639 and IRadAn=       5 diagonalized for initial guess.
 HarFok:  IExCor= 4639 AccDes= 0.00D+00 IRadAn=         5 IDoV= 1 UseB2=F ITyADJ=14
 ICtDFT=  3500011 ScaDFX=  1.000000  1.000000  1.000000  1.000000
 FoFCou: FMM=F IPFlag=           0 FMFlag=      100000 FMFlg1=           0
         NFxFlg=           0 DoJE=T BraDBF=F KetDBF=T FulRan=T
         wScrn=  0.000000 ICntrl=       500 IOpCl=  0 I1Cent=   200000004 NGrid=           0
         NMat0=    1 NMatS0=      1 NMatT0=    0 NMatD0=    1 NMtDS0=    0 NMtDT0=    0
 Petite list used in FoFCou.
 Initial guess <Sx>= 0.0000 <Sy>= 0.0000 <Sz>= 0.0000 <S**2>=-0.0000 S=-0.0000
 Requested convergence on RMS density matrix=1.00D-08 within 128 cycles.
 Requested convergence on MAX density matrix=1.00D-06.
 Requested convergence on             energy=1.00D-06.
 No special actions if energy rises.
 Integral accuracy reduced to 1.0D-05 until final iterations.
 Initial convergence to 1.0D-05 achieved.  Increase integral accuracy.
 SCF Done:  E(UwB97XD) =  -371.401429043     A.U. after   27 cycles
            NFock= 27  Conv=0.67D-08     -V/T= 2.0039
 <Sx>= 0.0000 <Sy>= 0.0000 <Sz>= 0.0000 <S**2>=-0.0000 S=-0.0000
 <L.S>=  0.00000000000    
 Annihilation of the first spin contaminant:
 S**2 before annihilation    -0.0000,   after    -0.0000

 **********************************************************************

            Population analysis using the SCF density.

 **********************************************************************

 Orbital symmetries:
 Alpha Orbitals:
       Occupied  (A) (A) (A) (A) (A) (A) (A) (A) (A) (A) (A) (A)
                 (A) (A) (A) (A) (A) (A) (A) (A) (A) (A) (A) (A)
                 (A)
       Virtual   (A) (A) (A) (A) (A) (A) (A) (A) (A) (A) (A) (A)
                 (A) (A) (A) (A) (A) (A) (A) (A) (A) (A) (A) (A)
                 (A) (A) (A) (A) (A) (A) (A) (A) (A) (A) (A) (A)
                 (A) (A) (A) (A) (A) (A) (A) (A) (A) (A) (A) (A)
                 (A) (A) (A) (A) (A) (A) (A) (A) (A) (A) (A) (A)
                 (A) (A) (A) (A) (A) (A) (A) (A) (A) (A) (A) (A)
                 (A) (A) (A) (A) (A) (A) (A) (A) (A) (A) (A) (A)
                 (A) (A) (A) (A) (A) (A) (A) (A) (A) (A) (A) (A)
                 (A) (A) (A) (A) (A) (A) (A) (A) (A) (A) (A) (A)
                 (A) (A) (A) (A) (A) (A) (A) (A) (A) (A) (A) (A)
                 (A) (A) (A) (A) (A) (A) (A) (A) (A) (A) (A) (A)
                 (A) (A) (A) (A) (A) (A) (A) (A) (A) (A) (A) (A)
                 (A) (A) (A) (A) (A) (A) (A) (A) (A) (A) (A) (A)
                 (A) (A) (A) (A) (A) (A) (A) (A) (A) (A) (A) (A)
                 (A) (A) (A) (A) (A) (A) (A) (A) (A) (A) (A) (A)
                 (A) (A) (A) (A) (A) (A) (A) (A) (A) (A) (A) (A)
                 (A) (A) (A) (A) (A) (A) (A) (A) (A) (A) (A) (A)
 Beta  Orbitals:
       Occupied  (A) (A) (A) (A) (A) (A) (A) (A) (A) (A) (A) (A)
                 (A) (A) (A) (A) (A) (A) (A) (A) (A) (A) (A) (A)
                 (A)
       Virtual   (A) (A) (A) (A) (A) (A) (A) (A) (A) (A) (A) (A)
                 (A) (A) (A) (A) (A) (A) (A) (A) (A) (A) (A) (A)
                 (A) (A) (A) (A) (A) (A) (A) (A) (A) (A) (A) (A)
                 (A) (A) (A) (A) (A) (A) (A) (A) (A) (A) (A) (A)
                 (A) (A) (A) (A) (A) (A) (A) (A) (A) (A) (A) (A)
                 (A) (A) (A) (A) (A) (A) (A) (A) (A) (A) (A) (A)
                 (A) (A) (A) (A) (A) (A) (A) (A) (A) (A) (A) (A)
                 (A) (A) (A) (A) (A) (A) (A) (A) (A) (A) (A) (A)
                 (A) (A) (A) (A) (A) (A) (A) (A) (A) (A) (A) (A)
                 (A) (A) (A) (A) (A) (A) (A) (A) (A) (A) (A) (A)
                 (A) (A) (A) (A) (A) (A) (A) (A) (A) (A) (A) (A)
                 (A) (A) (A) (A) (A) (A) (A) (A) (A) (A) (A) (A)
                 (A) (A) (A) (A) (A) (A) (A) (A) (A) (A) (A) (A)
                 (A) (A) (A) (A) (A) (A) (A) (A) (A) (A) (A) (A)
                 (A) (A) (A) (A) (A) (A) (A) (A) (A) (A) (A) (A)
                 (A) (A) (A) (A) (A) (A) (A) (A) (A) (A) (A) (A)
                 (A) (A) (A) (A) (A) (A) (A) (A) (A) (A) (A) (A)
 The electronic state is 1-A.
 Alpha  occ. eigenvalues --  -19.30025 -14.63346 -14.59604 -14.55486 -14.44171
 Alpha  occ. eigenvalues --  -10.42031 -10.35413  -1.27977  -1.25364  -1.07257
 Alpha  occ. eigenvalues --   -0.97636  -0.92601  -0.74176  -0.66992  -0.64105
 Alpha  occ. eigenvalues --   -0.63284  -0.61871  -0.59811  -0.57256  -0.56366
 Alpha  occ. eigenvalues --   -0.49219  -0.45712  -0.39311  -0.33958  -0.25144
 Alpha virt. eigenvalues --   -0.09381  -0.04723   0.02429   0.09869   0.13688
 Alpha virt. eigenvalues --    0.15042   0.18471   0.19238   0.24257   0.26999
 Alpha virt. eigenvalues --    0.28302   0.30105   0.31925   0.32594   0.34166
 Alpha virt. eigenvalues --    0.35873   0.38035   0.40275   0.41591   0.44550
 Alpha virt. eigenvalues --    0.45136   0.46361   0.48161   0.49211   0.50741
 Alpha virt. eigenvalues --    0.53299   0.54123   0.54683   0.54829   0.57011
 Alpha virt. eigenvalues --    0.57693   0.59906   0.61566   0.64350   0.64677
 Alpha virt. eigenvalues --    0.67624   0.70453   0.72229   0.76439   0.78725
 Alpha virt. eigenvalues --    0.79859   0.81901   0.86696   0.90814   0.92369
 Alpha virt. eigenvalues --    0.99292   1.00183   1.01404   1.04972   1.09493
 Alpha virt. eigenvalues --    1.11381   1.14413   1.21520   1.24921   1.29476
 Alpha virt. eigenvalues --    1.30278   1.31194   1.32839   1.38699   1.42641
 Alpha virt. eigenvalues --    1.43606   1.47032   1.50106   1.50923   1.53609
 Alpha virt. eigenvalues --    1.55798   1.58589   1.60784   1.63735   1.66186
 Alpha virt. eigenvalues --    1.68687   1.71002   1.75815   1.78149   1.80433
 Alpha virt. eigenvalues --    1.84384   1.87149   1.89540   1.91639   1.97411
 Alpha virt. eigenvalues --    2.01867   2.05332   2.07284   2.10811   2.12680
 Alpha virt. eigenvalues --    2.14273   2.18335   2.22379   2.24433   2.25334
 Alpha virt. eigenvalues --    2.29349   2.32353   2.37082   2.40440   2.43861
 Alpha virt. eigenvalues --    2.46397   2.49318   2.56470   2.60453   2.64315
 Alpha virt. eigenvalues --    2.66128   2.67674   2.74053   2.81033   2.85131
 Alpha virt. eigenvalues --    2.88101   2.91760   2.93767   2.96696   2.98606
 Alpha virt. eigenvalues --    3.01803   3.07455   3.11197   3.13035   3.15621
 Alpha virt. eigenvalues --    3.19461   3.23272   3.26534   3.27438   3.35115
 Alpha virt. eigenvalues --    3.37715   3.43302   3.46301   3.48929   3.55438
 Alpha virt. eigenvalues --    3.57473   3.60995   3.64745   3.70567   3.73239
 Alpha virt. eigenvalues --    3.73804   3.75793   3.78424   3.83037   3.85675
 Alpha virt. eigenvalues --    3.89698   3.94508   4.03585   4.04013   4.07694
 Alpha virt. eigenvalues --    4.10434   4.20718   4.22325   4.29995   4.31863
 Alpha virt. eigenvalues --    4.38171   4.38564   4.42455   4.43772   4.48345
 Alpha virt. eigenvalues --    4.51253   4.56319   4.61537   4.62883   4.66452
 Alpha virt. eigenvalues --    4.70673   4.73161   4.75645   4.78550   4.79236
 Alpha virt. eigenvalues --    4.82983   4.87608   4.91264   4.92152   4.99395
 Alpha virt. eigenvalues --    5.04125   5.04251   5.07721   5.10752   5.11523
 Alpha virt. eigenvalues --    5.14441   5.21327   5.23649   5.24812   5.25775
 Alpha virt. eigenvalues --    5.37862   5.39080   5.44992   5.54631   5.57548
 Alpha virt. eigenvalues --    5.70316   5.77880   5.79002   5.86535   6.00789
 Alpha virt. eigenvalues --    6.35269   6.35799   6.37646   6.50337   6.54926
 Alpha virt. eigenvalues --    6.59943   6.71459   6.85992   7.01511   7.12775
 Alpha virt. eigenvalues --    7.31580   7.44073  22.88506  23.29644  31.70838
 Alpha virt. eigenvalues --   32.07798  32.51961  32.89560  44.13800
  Beta  occ. eigenvalues --  -19.30025 -14.63346 -14.59604 -14.55486 -14.44171
  Beta  occ. eigenvalues --  -10.42031 -10.35413  -1.27977  -1.25364  -1.07257
  Beta  occ. eigenvalues --   -0.97636  -0.92601  -0.74176  -0.66992  -0.64105
  Beta  occ. eigenvalues --   -0.63284  -0.61871  -0.59811  -0.57256  -0.56366
  Beta  occ. eigenvalues --   -0.49219  -0.45712  -0.39311  -0.33958  -0.25144
  Beta virt. eigenvalues --   -0.09381  -0.04723   0.02429   0.09869   0.13688
  Beta virt. eigenvalues --    0.15042   0.18471   0.19238   0.24257   0.26999
  Beta virt. eigenvalues --    0.28302   0.30105   0.31925   0.32594   0.34166
  Beta virt. eigenvalues --    0.35873   0.38035   0.40275   0.41591   0.44550
  Beta virt. eigenvalues --    0.45136   0.46361   0.48161   0.49211   0.50741
  Beta virt. eigenvalues --    0.53299   0.54123   0.54683   0.54829   0.57011
  Beta virt. eigenvalues --    0.57693   0.59906   0.61566   0.64350   0.64677
  Beta virt. eigenvalues --    0.67624   0.70453   0.72229   0.76439   0.78725
  Beta virt. eigenvalues --    0.79859   0.81901   0.86696   0.90814   0.92369
  Beta virt. eigenvalues --    0.99292   1.00183   1.01404   1.04972   1.09493
  Beta virt. eigenvalues --    1.11381   1.14413   1.21520   1.24921   1.29476
  Beta virt. eigenvalues --    1.30278   1.31194   1.32839   1.38699   1.42641
  Beta virt. eigenvalues --    1.43606   1.47032   1.50106   1.50923   1.53609
  Beta virt. eigenvalues --    1.55798   1.58589   1.60784   1.63735   1.66186
  Beta virt. eigenvalues --    1.68687   1.71002   1.75815   1.78149   1.80433
  Beta virt. eigenvalues --    1.84384   1.87149   1.89540   1.91639   1.97411
  Beta virt. eigenvalues --    2.01867   2.05332   2.07284   2.10811   2.12680
  Beta virt. eigenvalues --    2.14273   2.18335   2.22379   2.24433   2.25334
  Beta virt. eigenvalues --    2.29349   2.32353   2.37082   2.40440   2.43861
  Beta virt. eigenvalues --    2.46397   2.49318   2.56470   2.60453   2.64315
  Beta virt. eigenvalues --    2.66128   2.67674   2.74053   2.81033   2.85131
  Beta virt. eigenvalues --    2.88101   2.91760   2.93767   2.96696   2.98606
  Beta virt. eigenvalues --    3.01803   3.07455   3.11197   3.13035   3.15621
  Beta virt. eigenvalues --    3.19461   3.23272   3.26534   3.27438   3.35115
  Beta virt. eigenvalues --    3.37715   3.43302   3.46301   3.48929   3.55438
  Beta virt. eigenvalues --    3.57473   3.60995   3.64745   3.70567   3.73239
  Beta virt. eigenvalues --    3.73804   3.75793   3.78424   3.83037   3.85675
  Beta virt. eigenvalues --    3.89698   3.94508   4.03585   4.04013   4.07694
  Beta virt. eigenvalues --    4.10434   4.20718   4.22325   4.29995   4.31863
  Beta virt. eigenvalues --    4.38171   4.38564   4.42455   4.43772   4.48345
  Beta virt. eigenvalues --    4.51253   4.56319   4.61537   4.62883   4.66452
  Beta virt. eigenvalues --    4.70673   4.73161   4.75645   4.78550   4.79236
  Beta virt. eigenvalues --    4.82983   4.87608   4.91264   4.92152   4.99395
  Beta virt. eigenvalues --    5.04125   5.04251   5.07721   5.10752   5.11523
  Beta virt. eigenvalues --    5.14441   5.21327   5.23649   5.24812   5.25775
  Beta virt. eigenvalues --    5.37862   5.39080   5.44992   5.54631   5.57548
  Beta virt. eigenvalues --    5.70316   5.77880   5.79002   5.86535   6.00789
  Beta virt. eigenvalues --    6.35269   6.35799   6.37646   6.50337   6.54926
  Beta virt. eigenvalues --    6.59943   6.71459   6.85992   7.01511   7.12775
  Beta virt. eigenvalues --    7.31580   7.44073  22.88506  23.29644  31.70838
  Beta virt. eigenvalues --   32.07798  32.51961  32.89560  44.13800
          Condensed to atoms (all electrons):
               1          2          3          4          5          6
     1  N    6.535479   0.688646  -0.084402  -0.003760  -0.000607  -0.002225
     2  C    0.688646   4.820811   0.293970  -0.063608   0.004144  -0.087957
     3  N   -0.084402   0.293970   6.308095   0.411291  -0.000145   0.001189
     4  N   -0.003760  -0.063608   0.411291   6.696347  -0.000003   0.001107
     5  O   -0.000607   0.004144  -0.000145  -0.000003   8.099217   0.250696
     6  N   -0.002225  -0.087957   0.001189   0.001107   0.250696   6.115543
     7  C   -0.095071   0.283246  -0.044291   0.005050  -0.065002   0.565188
     8  H    0.344154  -0.057692  -0.010874   0.000804   0.000006   0.000341
     9  H   -0.002161  -0.136499   0.024351   0.005932   0.004236  -0.023997
               7          8          9
     1  N   -0.095071   0.344154  -0.002161
     2  C    0.283246  -0.057692  -0.136499
     3  N   -0.044291  -0.010874   0.024351
     4  N    0.005050   0.000804   0.005932
     5  O   -0.065002   0.000006   0.004236
     6  N    0.565188   0.000341  -0.023997
     7  C    5.065764   0.014464   0.429852
     8  H    0.014464   0.486695  -0.000277
     9  H    0.429852  -0.000277   0.571858
          Atomic-Atomic Spin Densities.
               1          2          3          4          5          6
     1  N    0.000000  -0.000000  -0.000000   0.000000  -0.000000  -0.000000
     2  C   -0.000000   0.000000   0.000000  -0.000000   0.000000  -0.000000
     3  N   -0.000000   0.000000   0.000000  -0.000000   0.000000  -0.000000
     4  N    0.000000  -0.000000  -0.000000   0.000000  -0.000000   0.000000
     5  O   -0.000000   0.000000   0.000000  -0.000000  -0.000000   0.000000
     6  N   -0.000000  -0.000000  -0.000000   0.000000   0.000000  -0.000000
     7  C   -0.000000  -0.000000   0.000000   0.000000  -0.000000  -0.000000
     8  H   -0.000000   0.000000  -0.000000   0.000000  -0.000000   0.000000
     9  H   -0.000000   0.000000   0.000000  -0.000000  -0.000000   0.000000
               7          8          9
     1  N   -0.000000  -0.000000  -0.000000
     2  C   -0.000000   0.000000   0.000000
     3  N    0.000000  -0.000000   0.000000
     4  N    0.000000   0.000000  -0.000000
     5  O   -0.000000  -0.000000  -0.000000
     6  N   -0.000000   0.000000   0.000000
     7  C   -0.000000   0.000000   0.000000
     8  H    0.000000  -0.000000   0.000000
     9  H    0.000000   0.000000  -0.000000
 Mulliken charges and spin densities:
               1          2
     1  N   -0.380052   0.000000
     2  C    0.254939   0.000000
     3  N    0.100815   0.000000
     4  N   -0.053160   0.000000
     5  O   -0.292542  -0.000000
     6  N    0.180117  -0.000000
     7  C   -0.159200  -0.000000
     8  H    0.222379  -0.000000
     9  H    0.126705  -0.000000
 Sum of Mulliken charges =  -0.00000   0.00000
 Mulliken charges and spin densities with hydrogens summed into heavy atoms:
               1          2
     1  N   -0.157673   0.000000
     2  C    0.254939   0.000000
     3  N    0.100815   0.000000
     4  N   -0.053160   0.000000
     5  O   -0.292542  -0.000000
     6  N    0.180117  -0.000000
     7  C   -0.032496  -0.000000
 Electronic spatial extent (au):  <R**2>=            831.8437
 Charge=             -0.0000 electrons
 Dipole moment (field-independent basis, Debye):
    X=             -4.4513    Y=             -1.6991    Z=              0.6016  Tot=              4.8024
 Quadrupole moment (field-independent basis, Debye-Ang):
   XX=            -45.0972   YY=            -38.0531   ZZ=            -39.3880
   XY=             -3.1897   XZ=             -0.0067   YZ=              0.1709
 Traceless Quadrupole moment (field-independent basis, Debye-Ang):
   XX=             -4.2511   YY=              2.7930   ZZ=              1.4581
   XY=             -3.1897   XZ=             -0.0067   YZ=              0.1709
 Octapole moment (field-independent basis, Debye-Ang**2):
  XXX=            -21.3841  YYY=             -5.0319  ZZZ=             -0.5540  XYY=             -4.0315
  XXY=              8.3941  XXZ=              2.2777  XZZ=              1.1923  YZZ=             -1.0396
  YYZ=              1.0981  XYZ=              0.3374
 Hexadecapole moment (field-independent basis, Debye-Ang**3):
 XXXX=           -916.7390 YYYY=           -169.8560 ZZZZ=            -42.2329 XXXY=            -15.8608
 XXXZ=             -2.9250 YYYX=            -16.0679 YYYZ=              0.4054 ZZZX=             -0.9830
 ZZZY=              1.0120 XXYY=           -150.5604 XXZZ=           -141.6034 YYZZ=            -37.9719
 XXYZ=              2.1264 YYXZ=             -1.1023 ZZXY=             -0.4913
 N-N= 2.560278439243D+02 E-N=-1.380642212503D+03  KE= 3.699704316998D+02
                          Isotropic Fermi Contact Couplings
        Atom                 a.u.       MegaHertz       Gauss      10(-4) cm-1
     1  N(14)              0.00000       0.00000       0.00000       0.00000
     2  C(13)              0.00000       0.00000       0.00000       0.00000
     3  N(14)              0.00000       0.00000       0.00000       0.00000
     4  N(14)              0.00000       0.00000       0.00000       0.00000
     5  O(17)             -0.00000       0.00000       0.00000       0.00000
     6  N(14)             -0.00000      -0.00000      -0.00000      -0.00000
     7  C(13)             -0.00000      -0.00000      -0.00000      -0.00000
     8  H(1)              -0.00000      -0.00000      -0.00000      -0.00000
     9  H(1)              -0.00000      -0.00000      -0.00000      -0.00000
 --------------------------------------------------------
       Center         ----  Spin Dipole Couplings  ----
                      3XX-RR        3YY-RR        3ZZ-RR
 --------------------------------------------------------
     1   Atom       -0.000000     -0.000000      0.000000
     2   Atom       -0.000000      0.000000      0.000000
     3   Atom       -0.000000     -0.000000      0.000000
     4   Atom       -0.000000     -0.000000      0.000000
     5   Atom        0.000000     -0.000000      0.000000
     6   Atom        0.000000     -0.000000      0.000000
     7   Atom       -0.000000      0.000000     -0.000000
     8   Atom        0.000000     -0.000000     -0.000000
     9   Atom        0.000000     -0.000000      0.000000
 --------------------------------------------------------
                        XY            XZ            YZ
 --------------------------------------------------------
     1   Atom        0.000000      0.000000      0.000000
     2   Atom        0.000000      0.000000      0.000000
     3   Atom        0.000000     -0.000000     -0.000000
     4   Atom        0.000000     -0.000000     -0.000000
     5   Atom        0.000000     -0.000000      0.000000
     6   Atom        0.000000     -0.000000      0.000000
     7   Atom       -0.000000      0.000000      0.000000
     8   Atom       -0.000000     -0.000000      0.000000
     9   Atom       -0.000000      0.000000      0.000000
 --------------------------------------------------------


 ---------------------------------------------------------------------------------
              Anisotropic Spin Dipole Couplings in Principal Axis System
 ---------------------------------------------------------------------------------

       Atom             a.u.   MegaHertz   Gauss  10(-4) cm-1        Axes

              Baa    -0.0000    -0.000    -0.000    -0.000  0.8941 -0.4402 -0.0827
     1 N(14)  Bbb    -0.0000    -0.000    -0.000    -0.000  0.4330  0.8968 -0.0912
              Bcc     0.0000     0.000     0.000     0.000  0.1144  0.0457  0.9924
 
              Baa    -0.0000    -0.000    -0.000    -0.000  0.8734 -0.2984 -0.3850
     2 C(13)  Bbb    -0.0000    -0.000    -0.000    -0.000 -0.0006  0.7897 -0.6135
              Bcc     0.0000     0.000     0.000     0.000  0.4871  0.5360  0.6895
 
              Baa    -0.0000    -0.000    -0.000    -0.000 -0.2975  0.9529  0.0582
     3 N(14)  Bbb    -0.0000    -0.000    -0.000    -0.000  0.9546  0.2960  0.0332
              Bcc     0.0000     0.000     0.000     0.000 -0.0144 -0.0654  0.9978
 
              Baa    -0.0000    -0.000    -0.000    -0.000  0.9672 -0.2247  0.1182
     4 N(14)  Bbb    -0.0000    -0.000    -0.000    -0.000  0.2038  0.9648  0.1662
              Bcc     0.0000     0.000     0.000     0.000 -0.1514 -0.1367  0.9790
 
              Baa    -0.0000     0.000     0.000     0.000 -0.1031  0.9649 -0.2416
     5 O(17)  Bbb     0.0000    -0.000    -0.000    -0.000  0.9881  0.1273  0.0867
              Bcc     0.0000    -0.000    -0.000    -0.000 -0.1144  0.2298  0.9665
 
              Baa    -0.0000    -0.000    -0.000    -0.000 -0.1250  0.9165 -0.3801
     6 N(14)  Bbb     0.0000     0.000     0.000     0.000  0.9798  0.0537 -0.1927
              Bcc     0.0000     0.000     0.000     0.000  0.1562  0.3965  0.9046
 
              Baa    -0.0000    -0.000    -0.000    -0.000 -0.6020 -0.1218  0.7892
     7 C(13)  Bbb     0.0000     0.000     0.000     0.000  0.6263  0.5411  0.5612
              Bcc     0.0000     0.000     0.000     0.000 -0.4954  0.8321 -0.2495
 
              Baa    -0.0000    -0.000    -0.000    -0.000  0.4720  0.8673 -0.1580
     8 H(1)   Bbb    -0.0000    -0.000    -0.000    -0.000  0.1267  0.1107  0.9858
              Bcc     0.0000     0.000     0.000     0.000  0.8724 -0.4853 -0.0576
 
              Baa    -0.0000    -0.000    -0.000    -0.000  0.4433  0.8848 -0.1435
     9 H(1)   Bbb     0.0000     0.000     0.000     0.000 -0.3277  0.3090  0.8928
              Bcc     0.0000     0.000     0.000     0.000  0.8343 -0.3488  0.4269
 

 ---------------------------------------------------------------------------------

 1\1\GINC-NODE305\SP\UwB97XD\def2TZVP\C2H2N4O1\MHARRIS\22-Jun-2021\0\\#
  UwB97XD/Def2TZVP\\something title\\0,1\N,0,-0.504467,-0.163345,-1.288
 513\C,0,-0.44521,-0.869077,-0.211307\N,0,-1.537413,-1.099578,0.531604\
 N,0,-2.628294,-1.384659,0.720732\O,0,3.068084,-1.394765,-0.296578\N,0,
 1.859917,-1.357505,-0.279462\C,0,0.819331,-1.228172,0.425148\H,0,-1.41
 542,0.218821,-1.541081\H,0,0.759545,-1.533685,1.461778\\Version=ES64L-
 G16RevA.03\State=1-A\HF=-371.401429\S2=0.\S2-1=0.\S2A=0.\RMSD=6.698e-0
 9\Dipole=-1.6635297,-0.0453177,0.8946938\Quadrupole=-2.7752437,1.63310
 53,1.1421384,-1.0343531,2.4915727,-0.5135817\PG=C01 [X(C2H2N4O1)]\\@


 Happiness is a conscious choice, not an automatic response.
 -- Mildred Barthel
 Job cpu time:       0 days  0 hours 23 minutes 41.4 seconds.
 Elapsed time:       0 days  0 hours  5 minutes 56.1 seconds.
 File lengths (MBytes):  RWF=     54 Int=      0 D2E=      0 Chk=      5 Scr=      1
 Normal termination of Gaussian 16 at Tue Jun 22 15:51:19 2021.
