      -----------------------------------------------------------      
     |                   =====================                   |     
     |                           x T B                           |     
     |                   =====================                   |     
     |                         S. Grimme                         |     
     |          Mulliken Center for Theoretical Chemistry        |     
     |                    University of Bonn                     |     
     |                 Version 6.1.4 (SAW190525)                 |     
      -----------------------------------------------------------      

   This program is distributed in the hope that it will be useful,
   but WITHOUT ANY WARRANTY; without even the implied warranty of
   MERCHANTABILITY or FITNESS FOR A PARTICULAR PURPOSE.
   
   FOR NON-COMMERCIAL, ACADEMIA USE ONLY.
   
   Cite this work as:
   S. Grimme, C. Bannwarth, P. Shushkov, J. Comput. Theory Chem., 2017,
   13, 1989-2009. DOI: 10.1021/acs.jctc.7b00118
   C. Bannwarth, S. Ehlert and S. Grimme., J. Comput. Theory Chem., 2019,
   just accepted. DOI: 10.1021/acs.jctc.8b01176
   
   for sTDA-xTB:
   S. Grimme and C. Bannwarth, J. Chem. Phys., 2016, 145, 054103.
   DOI: 10.1063/1.4959605
   
   in the mass-spec context:
   V. Asgeirsson, C. Bauer and S. Grimme, Chem. Sci., 2017, 8, 4879.
   DOI: 10.1039/c7sc00601b
   
   for metadynamics refer to:
   S. Grimme, J. Chem. Theory Comput. Article ASAP, 2019,
   DOI: 10.1021/acs.jctc.9b00143
   
   with help from (in alphabetical order)
   C. Bannwarth, F. Bohle, G. Brandenburg, E. Caldeweyher, M. Checinski,
   S. Dohm, S. Ehlert, S. Ehrlich, F. März, H. Neugebauer, J. Pisarek,
   P. Pracht, P. Shushkov, and S. Spicher.
   
 * started run on 2021/06/02 at 10:00:08.754     

           -------------------------------------------------
          |                Calculation Setup                |
           -------------------------------------------------

          program call               : /groups/kemi/koerstz/opt/xtb/6.1/bin/xtb path_point_6.xyz --gfn2 --acc 0.2 --chrg 0
          hostname                   : node305
          coordinate file            : path_point_6.xyz
          omp threads                :                     1
          number of atoms            :                     9
          number of electrons        :                    36
          charge                     :                     0
          spin                       :                   0.0
          first test random number   :      0.11208737433303


########################################################################
# WARNING! Please study the warnings concerning your input carefully
#  - XTBPATH is not set, using XTBHOME instead
########################################################################

           ------------------------------------------------- 
          |                 G F N 2 - x T B                 |
          | Geometry, Frequencies, Noncovalent interactions |
          |            JCTC 2018 parametrisation            |
           ------------------------------------------------- 
             k(s)              :                1.8500
             k(p)              :                2.2300
             k(d)              :                2.2300
             k(f)              :                2.0000
             kEN (H0ij)        :               -2.0000
             D4 a1             :                0.5200
             D4 a2             :                5.0000
             D4 s6             :                1.0000
             D4 s8             :                2.7000
             D4 s9             :                5.0000
             alphaj            :                2.0000

  Z AO/shell   Hii/eV     exponent
  1     Wed Apr 25 08:07:45 CEST 2018   EN: 2.200 GM2: 0.406  GM3: 0.0800  RAES: 1.40
     1s    -10.707211    1.230000
  6     Wed Apr 25 08:07:45 CEST 2018   EN: 2.550 GM2: 0.538  GM3: 0.1500  RAES: 3.00
     2s    -13.970922    2.096432
     2p    -10.063292    1.800000
  7     Wed Apr 25 08:07:45 CEST 2018   EN: 3.040 GM2: 0.461  GM3:-0.0640  RAES: 1.90
     2s    -16.686243    2.339881
     2p    -12.523956    2.014332
  8     Wed Apr 25 08:07:45 CEST 2018   EN: 3.440 GM2: 0.452  GM3:-0.0517  RAES: 1.80
     2s    -20.229985    2.439742
     2p    -15.503117    2.137023


            Z     q(EN)     CN     RAES       Cart. coordinates
     1  N   5.0   -0.42    2.01    1.90    -0.94038    -0.32261    -2.43859
     2  C   4.0    0.32    3.01    3.02    -0.84346    -1.66659    -0.40815
     3  N   5.0   -0.15    2.02    1.90    -2.91417    -2.10152     0.98264
     4  N   5.0   -0.15    1.00    1.90    -4.97101    -2.55856     1.39706
     5  O   6.0   -0.10    1.00    1.80     5.79611    -2.59372    -0.59898
     6  N   5.0   -0.15    2.01    1.90     3.52698    -2.54386    -0.48581
     7  C   4.0    0.14    3.01    3.02     1.54279    -2.34951     0.80698
     8  H   1.0    0.33    1.00    1.43    -2.65914     0.40508    -2.92005
     9  H   1.0    0.18    1.00    1.43     1.41707    -2.92092     2.76222

           ------------------------------------------------- 
          |        Self-Consistent Charge Iterations        |
           ------------------------------------------------- 
q/qsh data taken from xtbrestart
CAMM data taken from xtbrestart

          ...................................................
          :                      SETUP                      :
          :.................................................:
          :  # basis functions                  30          :
          :  # atomic orbitals                  30          :
          :  # shells                           16          :
          :  # electrons                        36          :
          :  max. iterations                   250          :
          :  Hamiltonian                  GFN2-xTB          :
          :  restarted?                       true          :
          :  GBSA solvation                  false          :
          :  PC potential                    false          :
          :  electronic temp.          300.0000000     K    :
          :  accuracy                    0.2000000          :
          :  -> integral cutoff          0.3198970E+02      :
          :  -> integral neglect         0.2000000E-08      :
          :  -> SCF convergence          0.2000000E-06 Eh   :
          :  -> wf. convergence          0.2000000E-04 e    :
          :  Broyden damping             0.4000000          :
          ...................................................

 iter      E             dE          RMSdq      gap      omega  full diag
   1    -20.8825083 -0.208825E+02  0.402E+00    0.41       0.0  T
   2    -20.6387481  0.243760E+00  0.680E+00    1.47       1.0  T
   3    -20.8609596 -0.222212E+00  0.425E+00    1.11       1.0  T
   4    -21.0415517 -0.180592E+00  0.172E+00    0.25       1.0  T
   5    -21.0692904 -0.277387E-01  0.881E-01    0.21       1.0  T
   6    -20.9567343  0.112556E+00  0.308E+00    0.36       1.0  T
   7    -21.0379103 -0.811760E-01  0.176E+00    0.24       1.0  T
   8    -21.0770147 -0.391044E-01  0.264E-01    0.20       1.0  T
   9    -21.0700294  0.698530E-02  0.777E-01    0.20       1.0  T
  10    -21.0760458 -0.601644E-02  0.374E-01    0.19       1.0  T
  11    -21.0767187 -0.672834E-03  0.293E-01    0.20       1.0  T
  12    -21.0775707 -0.852089E-03  0.140E-01    0.20       1.0  T
  13    -21.0777475 -0.176780E-03  0.761E-02    0.20       1.0  T
  14    -21.0778212 -0.736861E-04  0.105E-02    0.20       3.2  T
  15    -21.0778213 -0.796280E-07  0.100E-02    0.20       3.3  T
  16    -21.0778223 -0.964138E-06  0.516E-03    0.20       6.5  T
  17    -21.0778226 -0.341902E-06  0.555E-04    0.20      60.1  T
  18    -21.0778226 -0.373501E-08  0.671E-05    0.20     496.4  T
  19    -21.0778226 -0.713030E-11  0.568E-05    0.20     587.2  T

   *** convergence criteria satisfied after 19 iterations ***

         #    Occupation            Energy/Eh            Energy/eV
      -------------------------------------------------------------
         1        2.0000           -0.7520425             -20.4641
       ...           ...                  ...                  ...
        12        2.0000           -0.5540670             -15.0769
        13        2.0000           -0.5162810             -14.0487
        14        2.0000           -0.5056030             -13.7582
        15        2.0000           -0.5004003             -13.6166
        16        2.0000           -0.4303267             -11.7098
        17        2.0000           -0.4263015             -11.6003
        18        1.9564           -0.3577044              -9.7336 (HOMO)
        19        0.0436           -0.3504753              -9.5369 (LUMO)
        20                         -0.3338815              -9.0854
        21                         -0.2806962              -7.6381
        22                         -0.1860340              -5.0622
        23                          0.0184576               0.5023
       ...                                ...                  ...
        30                          0.8473409              23.0573
      -------------------------------------------------------------
                  HL-Gap            0.0072291 Eh            0.1967 eV
             Fermi-level           -0.3540898 Eh           -9.6353 eV

 SCC (total)                   0 d,  0 h,  0 min,  0.009 sec
 SCC setup                      ...        0 min,  0.000 sec (  1.387%)
 Dispersion                     ...        0 min,  0.000 sec (  0.618%)
 integral evaluation            ...        0 min,  0.001 sec ( 12.241%)
 zeroth order Hamiltonian       ...        0 min,  0.000 sec (  0.351%)
 iterations                     ...        0 min,  0.005 sec ( 61.193%)
 molecular gradient             ...        0 min,  0.002 sec ( 22.068%)
 printout                       ...        0 min,  0.000 sec (  1.752%)

         :::::::::::::::::::::::::::::::::::::::::::::::::::::
         ::                     SUMMARY                     ::
         :::::::::::::::::::::::::::::::::::::::::::::::::::::
         :: total energy              -20.829543840523 Eh   ::
         :: gradient norm               0.033031113174 Eh/α ::
         :: HOMO-LUMO gap               0.196713876605 eV   ::
         ::.................................................::
         :: SCC energy                -21.077822602724 Eh   ::
         :: -> isotropic ES             0.025676051084 Eh   ::
         :: -> anisotropic ES           0.004452098864 Eh   ::
         :: -> anisotropic XC           0.024588164761 Eh   ::
         :: -> dispersion              -0.005509426677 Eh   ::
         :: repulsion energy            0.248277931465 Eh   ::
         :: add. restraining            0.000000000000 Eh   ::
         :::::::::::::::::::::::::::::::::::::::::::::::::::::

           -------------------------------------------------
          |                Property Printout                |
           -------------------------------------------------

    * Orbital Energies and Occupations

         #    Occupation            Energy/Eh            Energy/eV
      -------------------------------------------------------------
         1        2.0000           -0.7520425             -20.4641
       ...           ...                  ...                  ...
         6        2.0000           -0.6323177             -17.2062
         7        2.0000           -0.6105040             -16.6127
         8        2.0000           -0.6068120             -16.5122
         9        2.0000           -0.5960107             -16.2183
        10        2.0000           -0.5885438             -16.0151
        11        2.0000           -0.5703936             -15.5212
        12        2.0000           -0.5540670             -15.0769
        13        2.0000           -0.5162810             -14.0487
        14        2.0000           -0.5056030             -13.7582
        15        2.0000           -0.5004003             -13.6166
        16        2.0000           -0.4303267             -11.7098
        17        2.0000           -0.4263015             -11.6003
        18        1.9564           -0.3577044              -9.7336 (HOMO)
        19        0.0436           -0.3504753              -9.5369 (LUMO)
        20                         -0.3338815              -9.0854
        21                         -0.2806962              -7.6381
        22                         -0.1860340              -5.0622
        23                          0.0184576               0.5023
        24                          0.0572924               1.5590
        25                          0.1673948               4.5550
        26                          0.1863584               5.0711
        27                          0.3173810               8.6364
        28                          0.4556878              12.3999
        29                          0.7110076              19.3475
        30                          0.8473409              23.0573
      -------------------------------------------------------------
                  HL-Gap            0.0072291 Eh            0.1967 eV
             Fermi-level           -0.3540898 Eh           -9.6353 eV

   #   Z        covCN         q      C6AA      α(0)
   1   7 N      1.787    -0.316    29.022     7.979
   2   6 C      2.814     0.143    24.877     8.172
   3   7 N      1.914     0.123    19.751     6.589
   4   7 N      0.985    -0.106    22.954     6.891
   5   8 O      0.924    -0.254    18.936     5.836
   6   7 N      1.845     0.201    18.504     6.375
   7   6 C      2.831    -0.032    28.777     8.791
   8   1 H      0.860     0.155     1.369     1.833
   9   1 H      0.926     0.085     1.926     2.170

 Mol. C6AA /au·bohr⁶  :       1304.619323
 Mol. C8AA /au·bohr⁸  :      29821.996942
 Mol. α(0) /au        :         54.635261


Wiberg/Mayer (AO) data.
largest (>0.10) Wiberg bond orders for each atom
          total WBO             WBO to atom ...
     1  N   3.106        C    2 1.528    H    8 0.944    N    4 0.155    N    6 0.148    O    5 0.139    N    3 0.126
     2  C   3.934        N    1 1.528    N    3 1.140    C    7 1.042    N    4 0.131
     3  N   3.698        N    4 2.251    C    2 1.140    N    1 0.126
     4  N   2.781        N    3 2.251    N    6 0.183    N    1 0.155    C    2 0.131
     5  O   2.039        N    6 1.508    C    7 0.263    N    1 0.139
     6  N   3.609        C    7 1.636    O    5 1.508    N    4 0.183    N    1 0.148
     7  C   3.948        N    6 1.636    C    2 1.042    H    9 0.904    O    5 0.263
     8  H   0.976        N    1 0.944
     9  H   0.988        C    7 0.904

molecular dipole:
                 x           y           z       tot (Debye)
 q only:       -0.756      -0.090       0.498
   full:       -0.952      -0.090       0.752       3.092
molecular quadrupole (traceless):
                xx          xy          yy          xz          yz          zz
 q only:       -6.754       1.672       3.696       2.610      -1.475       3.057
  q+dip:       -8.990       0.848       4.979       5.399      -2.291       4.012
   full:      -10.166       0.718       6.124       6.055      -2.095       4.042


           -------------------------------------------------
          | TOTAL ENERGY              -20.829543840523 Eh   |
          | GRADIENT NORM               0.033031113174 Eh/α |
          | HOMO-LUMO GAP               0.196713876605 eV   |
           -------------------------------------------------

------------------------------------------------------------------------
 * finished run on 2021/06/02 at 10:00:08.772     
------------------------------------------------------------------------
 total:
 * wall-time:     0 d,  0 h,  0 min,  0.018 sec
 *  cpu-time:     0 d,  0 h,  0 min,  0.016 sec
 * ratio c/w:     0.924 speedup
 SCF:
 * wall-time:     0 d,  0 h,  0 min,  0.009 sec
 *  cpu-time:     0 d,  0 h,  0 min,  0.009 sec
 * ratio c/w:     1.000 speedup

