 Entering Gaussian System, Link 0=/software/kemi/g16/avx2/g16/g16
 Initial command:
 /software/kemi/g16/avx2/g16/l1.exe "/scratch/23935644/Gau-27348.inp" -scrdir="/scratch/23935644/"
 Entering Link 1 = /software/kemi/g16/avx2/g16/l1.exe PID=     27349.
  
 Copyright (c) 1988,1990,1992,1993,1995,1998,2003,2009,2016,
            Gaussian, Inc.  All Rights Reserved.
  
 This is part of the Gaussian(R) 16 program.  It is based on
 the Gaussian(R) 09 system (copyright 2009, Gaussian, Inc.),
 the Gaussian(R) 03 system (copyright 2003, Gaussian, Inc.),
 the Gaussian(R) 98 system (copyright 1998, Gaussian, Inc.),
 the Gaussian(R) 94 system (copyright 1995, Gaussian, Inc.),
 the Gaussian 92(TM) system (copyright 1992, Gaussian, Inc.),
 the Gaussian 90(TM) system (copyright 1990, Gaussian, Inc.),
 the Gaussian 88(TM) system (copyright 1988, Gaussian, Inc.),
 the Gaussian 86(TM) system (copyright 1986, Carnegie Mellon
 University), and the Gaussian 82(TM) system (copyright 1983,
 Carnegie Mellon University). Gaussian is a federally registered
 trademark of Gaussian, Inc.
  
 This software contains proprietary and confidential information,
 including trade secrets, belonging to Gaussian, Inc.
  
 This software is provided under written license and may be
 used, copied, transmitted, or stored only in accord with that
 written license.
  
 The following legend is applicable only to US Government
 contracts under FAR:
  
                    RESTRICTED RIGHTS LEGEND
  
 Use, reproduction and disclosure by the US Government is
 subject to restrictions as set forth in subparagraphs (a)
 and (c) of the Commercial Computer Software - Restricted
 Rights clause in FAR 52.227-19.
  
 Gaussian, Inc.
 340 Quinnipiac St., Bldg. 40, Wallingford CT 06492
  
  
 ---------------------------------------------------------------
 Warning -- This program may not be used in any manner that
 competes with the business of Gaussian, Inc. or will provide
 assistance to any competitor of Gaussian, Inc.  The licensee
 of this program is prohibited from giving any competitor of
 Gaussian, Inc. access to this program.  By using this program,
 the user acknowledges that Gaussian, Inc. is engaged in the
 business of creating and licensing software in the field of
 computational chemistry and represents and warrants to the
 licensee that it is not a competitor of Gaussian, Inc. and that
 it will not use this program in any manner prohibited above.
 ---------------------------------------------------------------
  

 Cite this work as:
 Gaussian 16, Revision A.03,
 M. J. Frisch, G. W. Trucks, H. B. Schlegel, G. E. Scuseria, 
 M. A. Robb, J. R. Cheeseman, G. Scalmani, V. Barone, 
 G. A. Petersson, H. Nakatsuji, X. Li, M. Caricato, A. V. Marenich, 
 J. Bloino, B. G. Janesko, R. Gomperts, B. Mennucci, H. P. Hratchian, 
 J. V. Ortiz, A. F. Izmaylov, J. L. Sonnenberg, D. Williams-Young, 
 F. Ding, F. Lipparini, F. Egidi, J. Goings, B. Peng, A. Petrone, 
 T. Henderson, D. Ranasinghe, V. G. Zakrzewski, J. Gao, N. Rega, 
 G. Zheng, W. Liang, M. Hada, M. Ehara, K. Toyota, R. Fukuda, 
 J. Hasegawa, M. Ishida, T. Nakajima, Y. Honda, O. Kitao, H. Nakai, 
 T. Vreven, K. Throssell, J. A. Montgomery, Jr., J. E. Peralta, 
 F. Ogliaro, M. J. Bearpark, J. J. Heyd, E. N. Brothers, K. N. Kudin, 
 V. N. Staroverov, T. A. Keith, R. Kobayashi, J. Normand, 
 K. Raghavachari, A. P. Rendell, J. C. Burant, S. S. Iyengar, 
 J. Tomasi, M. Cossi, J. M. Millam, M. Klene, C. Adamo, R. Cammi, 
 J. W. Ochterski, R. L. Martin, K. Morokuma, O. Farkas, 
 J. B. Foresman, and D. J. Fox, Gaussian, Inc., Wallingford CT, 2016.
 
 ******************************************
 Gaussian 16:  ES64L-G16RevA.03 25-Dec-2016
                23-Jun-2021 
 ******************************************
 %nprocshared=4
 Will use up to    4 processors via shared memory.
 %mem=8GB
 ---------------------------------------------
 #opt UwB97XD/Def2TZVP geom(modredundant, gic)
 ---------------------------------------------
 1/18=20,19=15,26=3,38=1,145=903/1,3;
 2/9=110,12=2,17=6,18=5,40=1/2;
 3/5=44,7=101,11=2,25=1,30=1,71=1,74=-58,116=2/1,2,3;
 4//1;
 5/5=2,38=5/2;
 6/7=2,8=2,9=2,10=2,28=1/1;
 7//1,2,3,16;
 1/18=20,19=15,26=3,145=903/3(2);
 2/9=110/2;
 99//99;
 2/9=110/2;
 3/5=44,7=101,11=2,25=1,30=1,71=1,74=-58,116=2/1,2,3;
 4/5=5,16=3,69=1/1;
 5/5=2,38=5/2;
 7//1,2,3,16;
 1/18=20,19=15,26=3,145=903/3(-5);
 2/9=110/2;
 6/7=2,8=2,9=2,10=2,19=2,28=1/1;
 99/9=1/99;
 ---------------
 something title
 ---------------
 Symbolic Z-matrix:
 Charge =  0 Multiplicity = 1
 N                    -0.4885   -0.18055  -1.29302 
 C                    -0.44785  -0.89904  -0.22223 
 N                    -1.54839  -1.12875   0.5045 
 N                    -2.63355  -1.31296   0.76403 
 O                     3.06596  -1.3429   -0.34415 
 N                     1.87504  -1.33101  -0.22723 
 C                     0.81251  -1.26348   0.42956 
 H                    -1.39614   0.20841  -1.55075 
 H                     0.737    -1.56168   1.4616 
 
 Initializing the GIC definitions file.
 Input is recognized as old modred.

 GradGradGradGradGradGradGradGradGradGradGradGradGradGradGradGradGradGrad
 Berny optimization.
 Initialization pass.
                           ----------------------------
                           !    Initial Parameters    !
                           ! (Angstroms and Degrees)  !
 --------------------------                            --------------------------
 ! Name  Definition              Value          Derivative Info.                !
 --------------------------------------------------------------------------------
 ! R1    R(1,2)                  1.2902         estimate D2E/DX2                !
 ! R2    R(1,8)                  1.0205         estimate D2E/DX2                !
 ! R3    R(2,3)                  1.3387         estimate D2E/DX2                !
 ! R4    R(2,7)                  1.465          estimate D2E/DX2                !
 ! R5    R(3,4)                  1.1309         estimate D2E/DX2                !
 ! R6    R(5,6)                  1.1967         estimate D2E/DX2                !
 ! R7    R(6,7)                  1.251          estimate D2E/DX2                !
 ! R8    R(7,9)                  1.0769         estimate D2E/DX2                !
 ! A1    A(2,1,8)              116.7358         estimate D2E/DX2                !
 ! A2    A(1,2,3)              121.3472         estimate D2E/DX2                !
 ! A3    A(1,2,7)              122.3382         estimate D2E/DX2                !
 ! A4    A(3,2,7)              115.0283         estimate D2E/DX2                !
 ! A5    A(2,3,4)              160.2899         estimate D2E/DX2                !
 ! A6    A(5,6,7)              153.7791         estimate D2E/DX2                !
 ! A7    A(2,7,6)              120.7026         estimate D2E/DX2                !
 ! A8    A(2,7,9)              115.7811         estimate D2E/DX2                !
 ! A9    A(6,7,9)              123.2134         estimate D2E/DX2                !
 ! D1    D(8,1,2,3)              0.553          estimate D2E/DX2                !
 ! D2    D(8,1,2,7)           -165.8463         estimate D2E/DX2                !
 ! D3    D(1,2,3,4)             34.0016         estimate D2E/DX2                !
 ! D4    D(7,2,3,4)           -158.6647         estimate D2E/DX2                !
 ! D5    D(1,2,7,6)            -26.1618         estimate D2E/DX2                !
 ! D6    D(1,2,7,9)            159.9601         estimate D2E/DX2                !
 ! D7    D(3,2,7,6)            166.6437         estimate D2E/DX2                !
 ! D8    D(3,2,7,9)             -7.2344         estimate D2E/DX2                !
 ! D9    D(5,6,7,2)            160.0639         estimate D2E/DX2                !
 ! D10   D(5,6,7,9)            -26.5272         estimate D2E/DX2                !
 --------------------------------------------------------------------------------
 Trust Radius=3.00D-01 FncErr=1.00D-07 GrdErr=1.00D-06 EigMax=2.50D+02 EigMin=1.00D-04
 Number of steps in this run=     37 maximum allowed number of steps=    100.
 GradGradGradGradGradGradGradGradGradGradGradGradGradGradGradGradGradGrad

                          Input orientation:                          
 ---------------------------------------------------------------------
 Center     Atomic      Atomic             Coordinates (Angstroms)
 Number     Number       Type             X           Y           Z
 ---------------------------------------------------------------------
      1          7           0       -0.488504   -0.180545   -1.293018
      2          6           0       -0.447851   -0.899042   -0.222225
      3          7           0       -1.548385   -1.128747    0.504503
      4          7           0       -2.633545   -1.312963    0.764034
      5          8           0        3.065956   -1.342899   -0.344147
      6          7           0        1.875043   -1.331014   -0.227233
      7          6           0        0.812508   -1.263483    0.429555
      8          1           0       -1.396144    0.208410   -1.550747
      9          1           0        0.736997   -1.561681    1.461600
 ---------------------------------------------------------------------
                    Distance matrix (angstroms):
                    1          2          3          4          5
     1  N    0.000000
     2  C    1.290150   0.000000
     3  N    2.292055   1.338683   0.000000
     4  N    3.180414   2.433371   1.130869   0.000000
     5  O    3.858187   3.543828   4.696617   5.806313   0.000000
     6  N    2.836517   2.362723   3.506595   4.616308   1.196697
     7  C    2.415087   1.464971   2.365922   3.462601   2.383894
     8  H    1.020549   1.972481   2.456668   3.033801   4.875734
     9  H    3.316219   2.162920   2.515241   3.450944   2.955104
                    6          7          8          9
     6  N    0.000000
     7  C    1.250964   0.000000
     8  H    3.849958   3.311527   0.000000
     9  H    2.049515   1.076913   4.093623   0.000000
 Stoichiometry    C2H2N4O
 Framework group  C1[X(C2H2N4O)]
 Deg. of freedom    21
 Full point group                 C1      NOp   1
 Largest Abelian subgroup         C1      NOp   1
 Largest concise Abelian subgroup C1      NOp   1
                         Standard orientation:                         
 ---------------------------------------------------------------------
 Center     Atomic      Atomic             Coordinates (Angstroms)
 Number     Number       Type             X           Y           Z
 ---------------------------------------------------------------------
      1          7           0       -0.509662    1.545334    0.039321
      2          6           0       -0.561686    0.257387   -0.015207
      3          7           0       -1.729508   -0.395147    0.034414
      4          7           0       -2.825718   -0.628792   -0.115919
      5          8           0        2.959590   -0.140850   -0.042403
      6          7           0        1.764918   -0.142631   -0.111971
      7          6           0        0.625680   -0.582908    0.158592
      8          1           0       -1.399138    2.037308    0.130515
      9          1           0        0.438245   -1.608729    0.427482
 ---------------------------------------------------------------------
 Rotational constants (GHZ):           9.3039475           1.4330173           1.2474610
 Standard basis: def2TZVP (5D, 7F)
 There are   264 symmetry adapted cartesian basis functions of A   symmetry.
 There are   229 symmetry adapted basis functions of A   symmetry.
   229 basis functions,   373 primitive gaussians,   264 cartesian basis functions
    25 alpha electrons       25 beta electrons
       nuclear repulsion energy       256.5892989798 Hartrees.
 NAtoms=    9 NActive=    9 NUniq=    9 SFac= 1.00D+00 NAtFMM=   60 NAOKFM=F Big=F
 Integral buffers will be    131072 words long.
 Raffenetti 2 integral format.
 Two-electron integral symmetry is turned on.
 Nuclear repulsion after empirical dispersion term =      256.5867675374 Hartrees.
 One-electron integrals computed using PRISM.
   1 Symmetry operations used in ECPInt.
 ECPInt:  NShTT=    3655 NPrTT=   11788 LenC2=    3519 LenP2D=    9054.
 LDataN:  DoStor=T MaxTD1= 6 Len=  172
 NBasis=   229 RedAO= T EigKep=  1.76D-04  NBF=   229
 NBsUse=   229 1.00D-06 EigRej= -1.00D+00 NBFU=   229
 ExpMin= 9.52D-02 ExpMax= 2.70D+04 ExpMxC= 9.22D+02 IAcc=3 IRadAn=         5 AccDes= 0.00D+00
 Harris functional with IExCor= 4639 and IRadAn=       5 diagonalized for initial guess.
 HarFok:  IExCor= 4639 AccDes= 0.00D+00 IRadAn=         5 IDoV= 1 UseB2=F ITyADJ=14
 ICtDFT=  3500011 ScaDFX=  1.000000  1.000000  1.000000  1.000000
 FoFCou: FMM=F IPFlag=           0 FMFlag=      100000 FMFlg1=           0
         NFxFlg=           0 DoJE=T BraDBF=F KetDBF=T FulRan=T
         wScrn=  0.000000 ICntrl=       500 IOpCl=  0 I1Cent=   200000004 NGrid=           0
         NMat0=    1 NMatS0=      1 NMatT0=    0 NMatD0=    1 NMtDS0=    0 NMtDT0=    0
 Petite list used in FoFCou.
 Initial guess <Sx>= 0.0000 <Sy>= 0.0000 <Sz>= 0.0000 <S**2>=-0.0000 S=-0.0000
 Requested convergence on RMS density matrix=1.00D-08 within 128 cycles.
 Requested convergence on MAX density matrix=1.00D-06.
 Requested convergence on             energy=1.00D-06.
 No special actions if energy rises.
 Integral accuracy reduced to 1.0D-05 until final iterations.
 Initial convergence to 1.0D-05 achieved.  Increase integral accuracy.
 SCF Done:  E(UwB97XD) =  -371.396179492     A.U. after   26 cycles
            NFock= 26  Conv=0.29D-08     -V/T= 2.0036
 <Sx>= 0.0000 <Sy>= 0.0000 <Sz>= 0.0000 <S**2>=-0.0000 S=-0.0000
 <L.S>=  0.00000000000    
 Annihilation of the first spin contaminant:
 S**2 before annihilation    -0.0000,   after    -0.0000

 **********************************************************************

            Population analysis using the SCF density.

 **********************************************************************

 Orbital symmetries:
 Alpha Orbitals:
       Occupied  (A) (A) (A) (A) (A) (A) (A) (A) (A) (A) (A) (A)
                 (A) (A) (A) (A) (A) (A) (A) (A) (A) (A) (A) (A)
                 (A)
       Virtual   (A) (A) (A) (A) (A) (A) (A) (A) (A) (A) (A) (A)
                 (A) (A) (A) (A) (A) (A) (A) (A) (A) (A) (A) (A)
                 (A) (A) (A) (A) (A) (A) (A) (A) (A) (A) (A) (A)
                 (A) (A) (A) (A) (A) (A) (A) (A) (A) (A) (A) (A)
                 (A) (A) (A) (A) (A) (A) (A) (A) (A) (A) (A) (A)
                 (A) (A) (A) (A) (A) (A) (A) (A) (A) (A) (A) (A)
                 (A) (A) (A) (A) (A) (A) (A) (A) (A) (A) (A) (A)
                 (A) (A) (A) (A) (A) (A) (A) (A) (A) (A) (A) (A)
                 (A) (A) (A) (A) (A) (A) (A) (A) (A) (A) (A) (A)
                 (A) (A) (A) (A) (A) (A) (A) (A) (A) (A) (A) (A)
                 (A) (A) (A) (A) (A) (A) (A) (A) (A) (A) (A) (A)
                 (A) (A) (A) (A) (A) (A) (A) (A) (A) (A) (A) (A)
                 (A) (A) (A) (A) (A) (A) (A) (A) (A) (A) (A) (A)
                 (A) (A) (A) (A) (A) (A) (A) (A) (A) (A) (A) (A)
                 (A) (A) (A) (A) (A) (A) (A) (A) (A) (A) (A) (A)
                 (A) (A) (A) (A) (A) (A) (A) (A) (A) (A) (A) (A)
                 (A) (A) (A) (A) (A) (A) (A) (A) (A) (A) (A) (A)
 Beta  Orbitals:
       Occupied  (A) (A) (A) (A) (A) (A) (A) (A) (A) (A) (A) (A)
                 (A) (A) (A) (A) (A) (A) (A) (A) (A) (A) (A) (A)
                 (A)
       Virtual   (A) (A) (A) (A) (A) (A) (A) (A) (A) (A) (A) (A)
                 (A) (A) (A) (A) (A) (A) (A) (A) (A) (A) (A) (A)
                 (A) (A) (A) (A) (A) (A) (A) (A) (A) (A) (A) (A)
                 (A) (A) (A) (A) (A) (A) (A) (A) (A) (A) (A) (A)
                 (A) (A) (A) (A) (A) (A) (A) (A) (A) (A) (A) (A)
                 (A) (A) (A) (A) (A) (A) (A) (A) (A) (A) (A) (A)
                 (A) (A) (A) (A) (A) (A) (A) (A) (A) (A) (A) (A)
                 (A) (A) (A) (A) (A) (A) (A) (A) (A) (A) (A) (A)
                 (A) (A) (A) (A) (A) (A) (A) (A) (A) (A) (A) (A)
                 (A) (A) (A) (A) (A) (A) (A) (A) (A) (A) (A) (A)
                 (A) (A) (A) (A) (A) (A) (A) (A) (A) (A) (A) (A)
                 (A) (A) (A) (A) (A) (A) (A) (A) (A) (A) (A) (A)
                 (A) (A) (A) (A) (A) (A) (A) (A) (A) (A) (A) (A)
                 (A) (A) (A) (A) (A) (A) (A) (A) (A) (A) (A) (A)
                 (A) (A) (A) (A) (A) (A) (A) (A) (A) (A) (A) (A)
                 (A) (A) (A) (A) (A) (A) (A) (A) (A) (A) (A) (A)
                 (A) (A) (A) (A) (A) (A) (A) (A) (A) (A) (A) (A)
 The electronic state is 1-A.
 Alpha  occ. eigenvalues --  -19.30798 -14.62706 -14.58617 -14.56019 -14.43670
 Alpha  occ. eigenvalues --  -10.41580 -10.35823  -1.28051  -1.26718  -1.07058
 Alpha  occ. eigenvalues --   -0.98578  -0.92293  -0.74209  -0.66942  -0.63875
 Alpha  occ. eigenvalues --   -0.63423  -0.61883  -0.59952  -0.57547  -0.57307
 Alpha  occ. eigenvalues --   -0.49821  -0.45584  -0.38948  -0.34377  -0.24277
 Alpha virt. eigenvalues --   -0.08542  -0.03806   0.03140   0.10274   0.14153
 Alpha virt. eigenvalues --    0.15106   0.18094   0.18807   0.24510   0.26970
 Alpha virt. eigenvalues --    0.28159   0.30170   0.31746   0.32498   0.34221
 Alpha virt. eigenvalues --    0.35734   0.38460   0.40386   0.41495   0.44395
 Alpha virt. eigenvalues --    0.45426   0.46516   0.48196   0.48901   0.51068
 Alpha virt. eigenvalues --    0.53367   0.54497   0.54887   0.55441   0.56959
 Alpha virt. eigenvalues --    0.58110   0.59921   0.61379   0.65092   0.66035
 Alpha virt. eigenvalues --    0.67840   0.70401   0.74209   0.78767   0.79640
 Alpha virt. eigenvalues --    0.81088   0.83355   0.86603   0.90654   0.92518
 Alpha virt. eigenvalues --    0.98349   0.99764   1.01951   1.04676   1.10852
 Alpha virt. eigenvalues --    1.11179   1.15209   1.19135   1.24956   1.27783
 Alpha virt. eigenvalues --    1.30499   1.32693   1.34240   1.37992   1.43316
 Alpha virt. eigenvalues --    1.44065   1.47333   1.50912   1.51576   1.53588
 Alpha virt. eigenvalues --    1.55700   1.58445   1.61496   1.65583   1.66100
 Alpha virt. eigenvalues --    1.69369   1.71369   1.75188   1.78710   1.82687
 Alpha virt. eigenvalues --    1.84673   1.88846   1.90283   1.92589   1.97292
 Alpha virt. eigenvalues --    2.02409   2.05389   2.08090   2.12108   2.13524
 Alpha virt. eigenvalues --    2.14834   2.18948   2.22598   2.25067   2.25973
 Alpha virt. eigenvalues --    2.29204   2.34344   2.37197   2.39617   2.43877
 Alpha virt. eigenvalues --    2.47774   2.49415   2.56618   2.61859   2.64243
 Alpha virt. eigenvalues --    2.68017   2.71058   2.75507   2.82349   2.85271
 Alpha virt. eigenvalues --    2.89355   2.93115   2.94456   2.98161   2.99302
 Alpha virt. eigenvalues --    3.02442   3.09006   3.12284   3.13863   3.16542
 Alpha virt. eigenvalues --    3.18826   3.22304   3.25289   3.29463   3.37059
 Alpha virt. eigenvalues --    3.38359   3.43173   3.48875   3.50552   3.56071
 Alpha virt. eigenvalues --    3.59707   3.62893   3.66035   3.71204   3.73475
 Alpha virt. eigenvalues --    3.74826   3.78888   3.79409   3.83123   3.86728
 Alpha virt. eigenvalues --    3.90504   3.96822   4.03033   4.03748   4.08640
 Alpha virt. eigenvalues --    4.13474   4.20306   4.22821   4.29074   4.30778
 Alpha virt. eigenvalues --    4.38592   4.38778   4.43053   4.43787   4.48780
 Alpha virt. eigenvalues --    4.51715   4.56398   4.61590   4.63418   4.64280
 Alpha virt. eigenvalues --    4.69986   4.72000   4.74932   4.76969   4.79295
 Alpha virt. eigenvalues --    4.80841   4.83589   4.90742   4.93695   4.98653
 Alpha virt. eigenvalues --    5.04870   5.06721   5.08153   5.11645   5.13160
 Alpha virt. eigenvalues --    5.18252   5.21591   5.22862   5.23508   5.28508
 Alpha virt. eigenvalues --    5.39897   5.40434   5.45786   5.52862   5.60849
 Alpha virt. eigenvalues --    5.76623   5.78465   5.79703   5.87048   6.04658
 Alpha virt. eigenvalues --    6.34603   6.35369   6.42455   6.56958   6.60427
 Alpha virt. eigenvalues --    6.65857   6.72832   6.91737   7.05292   7.15533
 Alpha virt. eigenvalues --    7.37486   7.45173  22.92359  23.31042  31.75202
 Alpha virt. eigenvalues --   32.08074  32.63247  32.98624  44.19987
  Beta  occ. eigenvalues --  -19.30798 -14.62706 -14.58617 -14.56019 -14.43670
  Beta  occ. eigenvalues --  -10.41580 -10.35823  -1.28051  -1.26718  -1.07058
  Beta  occ. eigenvalues --   -0.98578  -0.92293  -0.74209  -0.66942  -0.63875
  Beta  occ. eigenvalues --   -0.63423  -0.61883  -0.59952  -0.57547  -0.57307
  Beta  occ. eigenvalues --   -0.49821  -0.45584  -0.38948  -0.34377  -0.24277
  Beta virt. eigenvalues --   -0.08542  -0.03806   0.03140   0.10274   0.14153
  Beta virt. eigenvalues --    0.15106   0.18094   0.18807   0.24510   0.26970
  Beta virt. eigenvalues --    0.28159   0.30170   0.31746   0.32498   0.34221
  Beta virt. eigenvalues --    0.35734   0.38460   0.40386   0.41495   0.44395
  Beta virt. eigenvalues --    0.45426   0.46516   0.48196   0.48901   0.51068
  Beta virt. eigenvalues --    0.53367   0.54497   0.54887   0.55441   0.56959
  Beta virt. eigenvalues --    0.58110   0.59921   0.61379   0.65092   0.66035
  Beta virt. eigenvalues --    0.67840   0.70401   0.74209   0.78767   0.79640
  Beta virt. eigenvalues --    0.81088   0.83355   0.86603   0.90654   0.92518
  Beta virt. eigenvalues --    0.98349   0.99764   1.01951   1.04676   1.10852
  Beta virt. eigenvalues --    1.11179   1.15209   1.19135   1.24956   1.27783
  Beta virt. eigenvalues --    1.30499   1.32693   1.34240   1.37992   1.43316
  Beta virt. eigenvalues --    1.44065   1.47333   1.50912   1.51576   1.53588
  Beta virt. eigenvalues --    1.55700   1.58445   1.61496   1.65583   1.66100
  Beta virt. eigenvalues --    1.69369   1.71369   1.75188   1.78710   1.82687
  Beta virt. eigenvalues --    1.84673   1.88846   1.90283   1.92589   1.97292
  Beta virt. eigenvalues --    2.02409   2.05389   2.08090   2.12108   2.13524
  Beta virt. eigenvalues --    2.14834   2.18948   2.22598   2.25067   2.25973
  Beta virt. eigenvalues --    2.29204   2.34344   2.37197   2.39617   2.43877
  Beta virt. eigenvalues --    2.47774   2.49415   2.56618   2.61859   2.64243
  Beta virt. eigenvalues --    2.68017   2.71058   2.75507   2.82349   2.85271
  Beta virt. eigenvalues --    2.89355   2.93115   2.94456   2.98161   2.99302
  Beta virt. eigenvalues --    3.02442   3.09006   3.12284   3.13863   3.16542
  Beta virt. eigenvalues --    3.18826   3.22304   3.25289   3.29463   3.37059
  Beta virt. eigenvalues --    3.38359   3.43173   3.48875   3.50552   3.56071
  Beta virt. eigenvalues --    3.59707   3.62893   3.66035   3.71204   3.73475
  Beta virt. eigenvalues --    3.74826   3.78888   3.79409   3.83123   3.86728
  Beta virt. eigenvalues --    3.90504   3.96822   4.03033   4.03748   4.08640
  Beta virt. eigenvalues --    4.13474   4.20306   4.22821   4.29074   4.30778
  Beta virt. eigenvalues --    4.38592   4.38778   4.43053   4.43787   4.48780
  Beta virt. eigenvalues --    4.51715   4.56398   4.61590   4.63418   4.64280
  Beta virt. eigenvalues --    4.69986   4.72000   4.74932   4.76969   4.79295
  Beta virt. eigenvalues --    4.80841   4.83589   4.90742   4.93695   4.98653
  Beta virt. eigenvalues --    5.04870   5.06721   5.08153   5.11645   5.13160
  Beta virt. eigenvalues --    5.18252   5.21591   5.22862   5.23508   5.28508
  Beta virt. eigenvalues --    5.39897   5.40434   5.45786   5.52862   5.60849
  Beta virt. eigenvalues --    5.76623   5.78465   5.79703   5.87048   6.04658
  Beta virt. eigenvalues --    6.34603   6.35369   6.42455   6.56958   6.60427
  Beta virt. eigenvalues --    6.65857   6.72832   6.91737   7.05292   7.15533
  Beta virt. eigenvalues --    7.37486   7.45173  22.92359  23.31042  31.75202
  Beta virt. eigenvalues --   32.08074  32.63247  32.98624  44.19987
          Condensed to atoms (all electrons):
               1          2          3          4          5          6
     1  N    6.553505   0.684317  -0.088408  -0.001461  -0.000829  -0.001398
     2  C    0.684317   4.856361   0.306283  -0.059213   0.005624  -0.090631
     3  N   -0.088408   0.306283   6.299339   0.396456  -0.000186   0.001017
     4  N   -0.001461  -0.059213   0.396456   6.727378  -0.000005   0.000750
     5  O   -0.000829   0.005624  -0.000186  -0.000005   8.077725   0.260635
     6  N   -0.001398  -0.090631   0.001017   0.000750   0.260635   6.055231
     7  C   -0.096189   0.258186  -0.040785   0.007118  -0.064615   0.595461
     8  H    0.347680  -0.059964  -0.011025   0.000911   0.000023  -0.000007
     9  H   -0.003272  -0.147140   0.024921   0.004705   0.002853  -0.026848
               7          8          9
     1  N   -0.096189   0.347680  -0.003272
     2  C    0.258186  -0.059964  -0.147140
     3  N   -0.040785  -0.011025   0.024921
     4  N    0.007118   0.000911   0.004705
     5  O   -0.064615   0.000023   0.002853
     6  N    0.595461  -0.000007  -0.026848
     7  C    5.054209   0.014330   0.434475
     8  H    0.014330   0.487227  -0.000393
     9  H    0.434475  -0.000393   0.582279
          Atomic-Atomic Spin Densities.
               1          2          3          4          5          6
     1  N   -0.000000   0.000000   0.000000  -0.000000   0.000000  -0.000000
     2  C    0.000000  -0.000000  -0.000000   0.000000   0.000000  -0.000000
     3  N    0.000000  -0.000000  -0.000000   0.000000  -0.000000   0.000000
     4  N   -0.000000   0.000000   0.000000  -0.000000   0.000000  -0.000000
     5  O    0.000000   0.000000  -0.000000   0.000000   0.000000  -0.000000
     6  N   -0.000000  -0.000000   0.000000  -0.000000  -0.000000   0.000000
     7  C    0.000000   0.000000  -0.000000  -0.000000  -0.000000   0.000000
     8  H    0.000000  -0.000000   0.000000  -0.000000   0.000000  -0.000000
     9  H    0.000000  -0.000000   0.000000   0.000000   0.000000  -0.000000
               7          8          9
     1  N    0.000000   0.000000   0.000000
     2  C    0.000000  -0.000000  -0.000000
     3  N   -0.000000   0.000000   0.000000
     4  N   -0.000000  -0.000000   0.000000
     5  O   -0.000000   0.000000   0.000000
     6  N    0.000000  -0.000000  -0.000000
     7  C    0.000000  -0.000000  -0.000000
     8  H   -0.000000   0.000000  -0.000000
     9  H   -0.000000  -0.000000   0.000000
 Mulliken charges and spin densities:
               1          2
     1  N   -0.393944  -0.000000
     2  C    0.246178  -0.000000
     3  N    0.112389  -0.000000
     4  N   -0.076638  -0.000000
     5  O   -0.281224   0.000000
     6  N    0.205791   0.000000
     7  C   -0.162190   0.000000
     8  H    0.221218   0.000000
     9  H    0.128421   0.000000
 Sum of Mulliken charges =  -0.00000  -0.00000
 Mulliken charges and spin densities with hydrogens summed into heavy atoms:
               1          2
     1  N   -0.172725  -0.000000
     2  C    0.246178  -0.000000
     3  N    0.112389  -0.000000
     4  N   -0.076638  -0.000000
     5  O   -0.281224   0.000000
     6  N    0.205791   0.000000
     7  C   -0.033769   0.000000
 Electronic spatial extent (au):  <R**2>=            832.0842
 Charge=             -0.0000 electrons
 Dipole moment (field-independent basis, Debye):
    X=             -3.9416    Y=             -1.7948    Z=              0.5001  Tot=              4.3598
 Quadrupole moment (field-independent basis, Debye-Ang):
   XX=            -45.0383   YY=            -37.9899   ZZ=            -39.3005
   XY=             -3.4935   XZ=             -0.0101   YZ=              0.1587
 Traceless Quadrupole moment (field-independent basis, Debye-Ang):
   XX=             -4.2621   YY=              2.7863   ZZ=              1.4757
   XY=             -3.4935   XZ=             -0.0101   YZ=              0.1587
 Octapole moment (field-independent basis, Debye-Ang**2):
  XXX=            -16.3984  YYY=             -5.1552  ZZZ=             -0.3957  XYY=             -3.7365
  XXY=              8.0008  XXZ=              1.6470  XZZ=              1.5730  YZZ=             -0.9936
  YYZ=              1.1831  XYZ=              0.2333
 Hexadecapole moment (field-independent basis, Debye-Ang**3):
 XXXX=           -920.9943 YYYY=           -169.0124 ZZZZ=            -39.9264 XXXY=            -18.2483
 XXXZ=             -2.6389 YYYX=            -16.1490 YYYZ=              0.5779 ZZZX=             -0.8085
 ZZZY=              0.8361 XXYY=           -150.8881 XXZZ=           -141.1978 YYZZ=            -37.7033
 XXYZ=              2.0603 YYXZ=             -1.2194 ZZXY=             -0.4816
 N-N= 2.565867675374D+02 E-N=-1.381789049726D+03  KE= 3.700625564846D+02
                          Isotropic Fermi Contact Couplings
        Atom                 a.u.       MegaHertz       Gauss      10(-4) cm-1
     1  N(14)             -0.00000      -0.00000      -0.00000      -0.00000
     2  C(13)              0.00000       0.00000       0.00000       0.00000
     3  N(14)             -0.00000      -0.00000      -0.00000      -0.00000
     4  N(14)             -0.00000      -0.00000      -0.00000      -0.00000
     5  O(17)              0.00000      -0.00000      -0.00000      -0.00000
     6  N(14)              0.00000       0.00000       0.00000       0.00000
     7  C(13)              0.00000       0.00000       0.00000       0.00000
     8  H(1)               0.00000       0.00000       0.00000       0.00000
     9  H(1)               0.00000       0.00000       0.00000       0.00000
 --------------------------------------------------------
       Center         ----  Spin Dipole Couplings  ----
                      3XX-RR        3YY-RR        3ZZ-RR
 --------------------------------------------------------
     1   Atom        0.000000      0.000000     -0.000000
     2   Atom        0.000000      0.000000     -0.000000
     3   Atom        0.000000      0.000000     -0.000000
     4   Atom        0.000000      0.000000     -0.000000
     5   Atom       -0.000000      0.000000     -0.000000
     6   Atom       -0.000000      0.000000     -0.000000
     7   Atom        0.000000     -0.000000      0.000000
     8   Atom       -0.000000      0.000000      0.000000
     9   Atom       -0.000000      0.000000     -0.000000
 --------------------------------------------------------
                        XY            XZ            YZ
 --------------------------------------------------------
     1   Atom       -0.000000     -0.000000      0.000000
     2   Atom       -0.000000     -0.000000     -0.000000
     3   Atom       -0.000000     -0.000000     -0.000000
     4   Atom       -0.000000      0.000000      0.000000
     5   Atom       -0.000000      0.000000     -0.000000
     6   Atom       -0.000000      0.000000     -0.000000
     7   Atom        0.000000     -0.000000     -0.000000
     8   Atom        0.000000      0.000000     -0.000000
     9   Atom        0.000000     -0.000000      0.000000
 --------------------------------------------------------


 ---------------------------------------------------------------------------------
              Anisotropic Spin Dipole Couplings in Principal Axis System
 ---------------------------------------------------------------------------------

       Atom             a.u.   MegaHertz   Gauss  10(-4) cm-1        Axes

              Baa    -0.0000    -0.000    -0.000    -0.000  0.0667 -0.0366  0.9971
     1 N(14)  Bbb     0.0000     0.000     0.000     0.000  0.5367  0.8438 -0.0050
              Bcc     0.0000     0.000     0.000     0.000  0.8412 -0.5354 -0.0759
 
              Baa    -0.0000    -0.000    -0.000    -0.000  0.3985  0.4000  0.8254
     2 C(13)  Bbb     0.0000     0.000     0.000     0.000  0.2732  0.8073 -0.5231
              Bcc     0.0000     0.000     0.000     0.000  0.8756 -0.4339 -0.2124
 
              Baa    -0.0000    -0.000    -0.000    -0.000  0.0066  0.0138  0.9999
     3 N(14)  Bbb     0.0000     0.000     0.000     0.000  0.9631  0.2690 -0.0100
              Bcc     0.0000     0.000     0.000     0.000 -0.2691  0.9630 -0.0115
 
              Baa    -0.0000    -0.000    -0.000    -0.000 -0.0838 -0.0534  0.9950
     4 N(14)  Bbb     0.0000     0.000     0.000     0.000 -0.0628  0.9969  0.0482
              Bcc     0.0000     0.000     0.000     0.000  0.9945  0.0584  0.0869
 
              Baa    -0.0000     0.000     0.000     0.000 -0.0853  0.2241  0.9708
     5 O(17)  Bbb    -0.0000     0.000     0.000     0.000  0.9855  0.1626  0.0490
              Bcc     0.0000    -0.000    -0.000    -0.000 -0.1469  0.9609 -0.2347
 
              Baa    -0.0000    -0.000    -0.000    -0.000  0.1067  0.3742  0.9212
     6 N(14)  Bbb    -0.0000    -0.000    -0.000    -0.000  0.9824  0.1031 -0.1556
              Bcc     0.0000     0.000     0.000     0.000 -0.1532  0.9216 -0.3566
 
              Baa    -0.0000    -0.000    -0.000    -0.000 -0.4407  0.8633 -0.2460
     7 C(13)  Bbb    -0.0000    -0.000    -0.000    -0.000  0.5544  0.4773  0.6818
              Bcc     0.0000     0.000     0.000     0.000  0.7060  0.1641 -0.6890
 
              Baa    -0.0000    -0.000    -0.000    -0.000  0.8653 -0.4971 -0.0646
     8 H(1)   Bbb     0.0000     0.000     0.000     0.000  0.0723 -0.0037  0.9974
              Bcc     0.0000     0.000     0.000     0.000  0.4960  0.8677 -0.0327
 
              Baa    -0.0000    -0.000    -0.000    -0.000  0.7911 -0.4098  0.4541
     9 H(1)   Bbb    -0.0000    -0.000    -0.000    -0.000 -0.3317  0.3363  0.8814
              Bcc     0.0000     0.000     0.000     0.000  0.5139  0.8479 -0.1302
 

 ---------------------------------------------------------------------------------

   1 Symmetry operations used in ECPInt.
 ECPInt:  NShTT=    3655 NPrTT=   11788 LenC2=    3519 LenP2D=    9054.
 LDataN:  DoStor=T MaxTD1= 7 Len=  274
 Calling FoFJK, ICntrl=      2127 FMM=F ISym2X=0 I1Cent= 0 IOpClX= 1 NMat=1 NMatS=1 NMatT=0.
 ***** Axes restored to original set *****
 -------------------------------------------------------------------
 Center     Atomic                   Forces (Hartrees/Bohr)
 Number     Number              X              Y              Z
 -------------------------------------------------------------------
      1        7          -0.004643979    0.009085427   -0.005473319
      2        6           0.042945840    0.012812545   -0.020557637
      3        7          -0.051981390   -0.001283740    0.019725656
      4        7           0.023372016   -0.004078126   -0.000241375
      5        8           0.002797617    0.001280573    0.018102381
      6        7          -0.002187963   -0.002380934   -0.043122000
      7        6          -0.013663834   -0.005706651    0.014389310
      8        1           0.003601130   -0.008228037    0.002405537
      9        1          -0.000239438   -0.001501056    0.014771446
 -------------------------------------------------------------------
 Cartesian Forces:  Max     0.051981390 RMS     0.018420351

 GradGradGradGradGradGradGradGradGradGradGradGradGradGradGradGradGradGrad
 Berny optimization.
 FormGI is forming the generalized inverse of G from B-inverse, IUseBI=4.
 Internal  Forces:  Max     0.041438521 RMS     0.013159132
 Search for a local minimum.
 Step number   1 out of a maximum of   37
 All quantities printed in internal units (Hartrees-Bohrs-Radians)
 Mixed Optimization -- RFO/linear search
 Second derivative matrix not updated -- first step.
 ITU=  0
     Eigenvalues ---    0.01229   0.02155   0.02210   0.02503   0.03145
     Eigenvalues ---    0.03663   0.15964   0.16000   0.22015   0.24681
     Eigenvalues ---    0.24826   0.25000   0.25000   0.36349   0.36370
     Eigenvalues ---    0.44251   0.57501   0.70004   0.82882   1.06500
     Eigenvalues ---    1.48923
 RFO step:  Lambda=-1.48769641D-02 EMin= 1.22931770D-02
 Linear search not attempted -- first point.
 Iteration  1 RMS(Cart)=  0.07856467 RMS(Int)=  0.00569325
 Iteration  2 RMS(Cart)=  0.00676785 RMS(Int)=  0.00091922
 Iteration  3 RMS(Cart)=  0.00000822 RMS(Int)=  0.00091918
 Iteration  4 RMS(Cart)=  0.00000000 RMS(Int)=  0.00091918
 Variable       Old X    -DE/DX   Delta X   Delta X   Delta X     New X
                                 (Linear)    (Quad)   (Total)
    R1        2.43803   0.00306   0.00000   0.00427   0.00427   2.44231
    R2        1.92856  -0.00695   0.00000  -0.01519  -0.01519   1.91337
    R3        2.52974   0.03502   0.00000   0.05936   0.05936   2.58911
    R4        2.76839  -0.00753   0.00000  -0.01990  -0.01990   2.74850
    R5        2.13703  -0.02182   0.00000  -0.01451  -0.01451   2.12253
    R6        2.26143   0.00100   0.00000   0.00093   0.00093   2.26236
    R7        2.36398   0.01371   0.00000   0.01625   0.01625   2.38023
    R8        2.03507   0.01459   0.00000   0.03853   0.03853   2.07360
    A1        2.03742  -0.00770   0.00000  -0.04406  -0.04406   1.99337
    A2        2.11791   0.00208   0.00000   0.01485   0.01292   2.13083
    A3        2.13520   0.01326   0.00000   0.05674   0.05491   2.19011
    A4        2.00762  -0.01449   0.00000  -0.04886  -0.05090   1.95672
    A5        2.79759   0.01201   0.00000   0.04534   0.04534   2.84292
    A6        2.68395  -0.04144   0.00000  -0.15644  -0.15644   2.52751
    A7        2.10666  -0.00581   0.00000  -0.02409  -0.02425   2.08240
    A8        2.02076   0.00333   0.00000   0.01572   0.01557   2.03633
    A9        2.15048   0.00258   0.00000   0.01160   0.01144   2.16192
    D1        0.00965  -0.00278   0.00000  -0.03176  -0.02996  -0.02031
    D2       -2.89456  -0.00535   0.00000  -0.14365  -0.14545  -3.04002
    D3        0.59344  -0.00022   0.00000   0.00860   0.01017   0.60361
    D4       -2.76922   0.00558   0.00000   0.12574   0.12417  -2.64505
    D5       -0.45661   0.00140   0.00000   0.02492   0.02478  -0.43183
    D6        2.79183   0.00023   0.00000  -0.00849  -0.00864   2.78320
    D7        2.90848  -0.00284   0.00000  -0.08744  -0.08730   2.82118
    D8       -0.12626  -0.00401   0.00000  -0.12085  -0.12072  -0.24698
    D9        2.79364  -0.00034   0.00000  -0.01235  -0.01235   2.78129
   D10       -0.46299   0.00092   0.00000   0.02364   0.02364  -0.43934
         Item               Value     Threshold  Converged?
 Maximum Force            0.041439     0.000450     NO 
 RMS     Force            0.013159     0.000300     NO 
 Maximum Displacement     0.192127     0.001800     NO 
 RMS     Displacement     0.079009     0.001200     NO 
 Predicted change in Energy=-8.202120D-03
 GradGradGradGradGradGradGradGradGradGradGradGradGradGradGradGradGradGrad

                          Input orientation:                          
 ---------------------------------------------------------------------
 Center     Atomic      Atomic             Coordinates (Angstroms)
 Number     Number       Type             X           Y           Z
 ---------------------------------------------------------------------
      1          7           0       -0.495899   -0.105304   -1.317345
      2          6           0       -0.424095   -0.816531   -0.240622
      3          7           0       -1.532914   -1.126911    0.501907
      4          7           0       -2.581830   -1.387963    0.807178
      5          8           0        3.051506   -1.403767   -0.242478
      6          7           0        1.855816   -1.360440   -0.283800
      7          6           0        0.805261   -1.252721    0.402668
      8          1           0       -1.435470    0.179309   -1.565103
      9          1           0        0.733701   -1.537636    1.459918
 ---------------------------------------------------------------------
                    Distance matrix (angstroms):
                    1          2          3          4          5
     1  N    0.000000
     2  C    1.292412   0.000000
     3  N    2.329970   1.370097   0.000000
     4  N    3.241900   2.465814   1.123193   0.000000
     5  O    3.927522   3.524862   4.652706   5.730314   0.000000
     6  N    2.859046   2.344290   3.486454   4.569867   1.197188
     7  C    2.442954   1.454442   2.343660   3.413840   2.341932
     8  H    1.012513   1.941347   2.447088   3.065648   4.938464
     9  H    3.358077   2.179982   2.494800   3.382487   2.878940
                    6          7          8          9
     6  N    0.000000
     7  C    1.259566   0.000000
     8  H    3.852938   3.308128   0.000000
     9  H    2.081128   1.097304   4.099263   0.000000
 Stoichiometry    C2H2N4O
 Framework group  C1[X(C2H2N4O)]
 Deg. of freedom    21
 Full point group                 C1      NOp   1
 Largest Abelian subgroup         C1      NOp   1
 Largest concise Abelian subgroup C1      NOp   1
                         Standard orientation:                         
 ---------------------------------------------------------------------
 Center     Atomic      Atomic             Coordinates (Angstroms)
 Number     Number       Type             X           Y           Z
 ---------------------------------------------------------------------
      1          7           0       -0.539042    1.608229    0.039966
      2          6           0       -0.548142    0.315853    0.036520
      3          7           0       -1.714008   -0.403786    0.043030
      4          7           0       -2.771733   -0.735573   -0.137793
      5          8           0        2.934616   -0.223221   -0.030190
      6          7           0        1.752218   -0.089840   -0.162112
      7          6           0        0.622430   -0.537040    0.169698
      8          1           0       -1.459467    2.029987    0.029042
      9          1           0        0.444764   -1.570304    0.493545
 ---------------------------------------------------------------------
 Rotational constants (GHZ):           8.4885038           1.4629277           1.2558865
 Standard basis: def2TZVP (5D, 7F)
 There are   264 symmetry adapted cartesian basis functions of A   symmetry.
 There are   229 symmetry adapted basis functions of A   symmetry.
   229 basis functions,   373 primitive gaussians,   264 cartesian basis functions
    25 alpha electrons       25 beta electrons
       nuclear repulsion energy       256.2386446002 Hartrees.
 NAtoms=    9 NActive=    9 NUniq=    9 SFac= 1.00D+00 NAtFMM=   60 NAOKFM=F Big=F
 Integral buffers will be    131072 words long.
 Raffenetti 2 integral format.
 Two-electron integral symmetry is turned on.
 Nuclear repulsion after empirical dispersion term =      256.2360921107 Hartrees.
 One-electron integrals computed using PRISM.
   1 Symmetry operations used in ECPInt.
 ECPInt:  NShTT=    3655 NPrTT=   11788 LenC2=    3521 LenP2D=    9051.
 LDataN:  DoStor=T MaxTD1= 6 Len=  172
 NBasis=   229 RedAO= T EigKep=  1.66D-04  NBF=   229
 NBsUse=   229 1.00D-06 EigRej= -1.00D+00 NBFU=   229
 Initial guess from the checkpoint file:  "/scratch/23935644/Gau-27349.chk"
 B after Tr=    -0.000000   -0.000000    0.000000
         Rot=    0.999984    0.004698    0.000209   -0.003286 Ang=   0.66 deg.
 Initial guess <Sx>= 0.0000 <Sy>= 0.0000 <Sz>= 0.0000 <S**2>=-0.0000 S=-0.0000
 ExpMin= 9.52D-02 ExpMax= 2.70D+04 ExpMxC= 9.22D+02 IAcc=2 IRadAn=         4 AccDes= 0.00D+00
 Harris functional with IExCor= 4639 and IRadAn=       4 diagonalized for initial guess.
 HarFok:  IExCor= 4639 AccDes= 0.00D+00 IRadAn=         4 IDoV= 1 UseB2=F ITyADJ=14
 ICtDFT=  3500011 ScaDFX=  1.000000  1.000000  1.000000  1.000000
 FoFCou: FMM=F IPFlag=           0 FMFlag=      100000 FMFlg1=           0
         NFxFlg=           0 DoJE=T BraDBF=F KetDBF=T FulRan=T
         wScrn=  0.000000 ICntrl=       500 IOpCl=  0 I1Cent=   200000004 NGrid=           0
         NMat0=    1 NMatS0=      1 NMatT0=    0 NMatD0=    1 NMtDS0=    0 NMtDT0=    0
 Petite list used in FoFCou.
 Requested convergence on RMS density matrix=1.00D-08 within 128 cycles.
 Requested convergence on MAX density matrix=1.00D-06.
 Requested convergence on             energy=1.00D-06.
 No special actions if energy rises.
 Integral accuracy reduced to 1.0D-05 until final iterations.
 Initial convergence to 1.0D-05 achieved.  Increase integral accuracy.
 SCF Done:  E(UwB97XD) =  -371.409993815     A.U. after   22 cycles
            NFock= 22  Conv=0.47D-08     -V/T= 2.0037
 <Sx>= 0.0000 <Sy>= 0.0000 <Sz>= 0.0000 <S**2>= 0.0000 S= 0.0000
 <L.S>=  0.00000000000    
 Annihilation of the first spin contaminant:
 S**2 before annihilation     0.0000,   after    -0.0000
   1 Symmetry operations used in ECPInt.
 ECPInt:  NShTT=    3655 NPrTT=   11788 LenC2=    3521 LenP2D=    9051.
 LDataN:  DoStor=T MaxTD1= 7 Len=  274
 Calling FoFJK, ICntrl=      2127 FMM=F ISym2X=0 I1Cent= 0 IOpClX= 1 NMat=1 NMatS=1 NMatT=0.
 ***** Axes restored to original set *****
 -------------------------------------------------------------------
 Center     Atomic                   Forces (Hartrees/Bohr)
 Number     Number              X              Y              Z
 -------------------------------------------------------------------
      1        7          -0.003766169   -0.000478803    0.009233832
      2        6           0.040873403    0.005559880   -0.015815543
      3        7          -0.041203153   -0.001411961    0.012174030
      4        7           0.022611915   -0.000119089   -0.002597098
      5        8           0.009433111   -0.000361323    0.021733203
      6        7           0.003139045   -0.001883249   -0.057376147
      7        6          -0.029242442    0.000220749    0.033665834
      8        1          -0.001962288   -0.002694107   -0.002120948
      9        1           0.000116578    0.001167903    0.001102837
 -------------------------------------------------------------------
 Cartesian Forces:  Max     0.057376147 RMS     0.019522960

 GradGradGradGradGradGradGradGradGradGradGradGradGradGradGradGradGradGrad
 Berny optimization.
 Using GEDIIS/GDIIS optimizer.
 FormGI is forming the generalized inverse of G from B-inverse, IUseBI=4.
 Internal  Forces:  Max     0.048177194 RMS     0.013368297
 Search for a local minimum.
 Step number   2 out of a maximum of   37
 All quantities printed in internal units (Hartrees-Bohrs-Radians)
 Mixed Optimization -- RFO/linear search
 Update second derivatives using D2CorX and points    1    2
 DE= -1.38D-02 DEPred=-8.20D-03 R= 1.68D+00
 TightC=F SS=  1.41D+00  RLast= 3.20D-01 DXNew= 5.0454D-01 9.6050D-01
 Trust test= 1.68D+00 RLast= 3.20D-01 DXMaxT set to 5.05D-01
 ITU=  1  0
 Use linear search instead of GDIIS.
     Eigenvalues ---    0.00902   0.01359   0.02159   0.02376   0.02787
     Eigenvalues ---    0.03723   0.05380   0.15983   0.16972   0.22142
     Eigenvalues ---    0.24925   0.24992   0.27336   0.35796   0.40697
     Eigenvalues ---    0.47095   0.57688   0.72422   0.98877   1.23442
     Eigenvalues ---    1.46207
 RFO step:  Lambda=-3.17935128D-02 EMin= 9.01974128D-03
 Quartic linear search produced a step of  2.00000.
 Maximum step size (   0.505) exceeded in Quadratic search.
    -- Step size scaled by   0.949
 Iteration  1 RMS(Cart)=  0.14422172 RMS(Int)=  0.12032530
 Iteration  2 RMS(Cart)=  0.08049414 RMS(Int)=  0.07606644
 Iteration  3 RMS(Cart)=  0.07166025 RMS(Int)=  0.03798969
 Iteration  4 RMS(Cart)=  0.07128523 RMS(Int)=  0.00844567
 Iteration  5 RMS(Cart)=  0.00609761 RMS(Int)=  0.00512444
 Iteration  6 RMS(Cart)=  0.00000407 RMS(Int)=  0.00512444
 Iteration  7 RMS(Cart)=  0.00000000 RMS(Int)=  0.00512444
 Variable       Old X    -DE/DX   Delta X   Delta X   Delta X     New X
                                 (Linear)    (Quad)   (Total)
    R1        2.44231  -0.00735   0.00855  -0.01451  -0.00596   2.43635
    R2        1.91337   0.00158  -0.03037  -0.00761  -0.03798   1.87539
    R3        2.58911   0.02058   0.11873   0.12107   0.23980   2.82891
    R4        2.74850  -0.01412  -0.03979  -0.08395  -0.12374   2.62475
    R5        2.12253  -0.02179  -0.02901  -0.04270  -0.07171   2.05081
    R6        2.26236   0.01018   0.00186   0.01837   0.02022   2.28258
    R7        2.38023   0.03010   0.03251   0.08223   0.11474   2.49497
    R8        2.07360   0.00075   0.07707   0.03666   0.11373   2.18734
    A1        1.99337  -0.00054  -0.08812  -0.02816  -0.11627   1.87709
    A2        2.13083  -0.00437   0.02584  -0.02701  -0.00797   2.12286
    A3        2.19011   0.01177   0.10981   0.11158   0.21424   2.40435
    A4        1.95672  -0.00724  -0.10181  -0.09253  -0.20108   1.75564
    A5        2.84292   0.00829   0.09067   0.08818   0.17885   3.02178
    A6        2.52751  -0.04818  -0.31289  -0.43425  -0.74714   1.78037
    A7        2.08240  -0.00393  -0.04851  -0.04683  -0.09568   1.98673
    A8        2.03633   0.00177   0.03113   0.02114   0.05193   2.08825
    A9        2.16192   0.00212   0.02289   0.02211   0.04465   2.20657
    D1       -0.02031  -0.00247  -0.05992  -0.06858  -0.11914  -0.13945
    D2       -3.04002  -0.00383  -0.29091   0.02528  -0.27498   2.96819
    D3        0.60361   0.00044   0.02034   0.01916   0.05347   0.65708
    D4       -2.64505   0.00285   0.24835  -0.05061   0.18376  -2.46129
    D5       -0.43183  -0.00031   0.04957  -0.01952   0.03008  -0.40175
    D6        2.78320   0.00001  -0.01727   0.03128   0.01406   2.79725
    D7        2.82118  -0.00157  -0.17460   0.06389  -0.11075   2.71043
    D8       -0.24698  -0.00125  -0.24143   0.11470  -0.12677  -0.37375
    D9        2.78129   0.00154  -0.02471   0.06068   0.03595   2.81723
   D10       -0.43934   0.00116   0.04729   0.00565   0.05297  -0.38637
         Item               Value     Threshold  Converged?
 Maximum Force            0.048177     0.000450     NO 
 RMS     Force            0.013368     0.000300     NO 
 Maximum Displacement     0.947179     0.001800     NO 
 RMS     Displacement     0.313886     0.001200     NO 
 Predicted change in Energy=-4.645069D-02
 GradGradGradGradGradGradGradGradGradGradGradGradGradGradGradGradGradGrad

                          Input orientation:                          
 ---------------------------------------------------------------------
 Center     Atomic      Atomic             Coordinates (Angstroms)
 Number     Number       Type             X           Y           Z
 ---------------------------------------------------------------------
      1          7           0       -0.539341    0.083158   -1.411311
      2          6           0       -0.308624   -0.648919   -0.375442
      3          7           0       -1.418664   -1.148265    0.496026
      4          7           0       -2.291934   -1.525412    1.018436
      5          8           0        2.731676   -1.520036    0.258747
      6          7           0        1.830761   -1.391645   -0.535524
      7          6           0        0.788621   -1.219658    0.256632
      8          1           0       -1.521894    0.105585   -1.549062
      9          1           0        0.705473   -1.546772    1.363819
 ---------------------------------------------------------------------
                    Distance matrix (angstroms):
                    1          2          3          4          5
     1  N    0.000000
     2  C    1.289260   0.000000
     3  N    2.434655   1.496995   0.000000
     4  N    3.400405   2.577723   1.085243   0.000000
     5  O    4.007353   3.225595   4.173708   5.080730   0.000000
     6  N    2.925651   2.270295   3.417908   4.407868   1.207890
     7  C    2.498569   1.388959   2.221377   3.188048   1.966137
     8  H    0.992415   1.848968   2.401079   3.137700   4.899355
     9  H    3.450736   2.204441   2.328912   3.017315   2.308116
                    6          7          8          9
     6  N    0.000000
     7  C    1.320283   0.000000
     8  H    3.809101   3.217962   0.000000
     9  H    2.213107   1.157489   4.021980   0.000000
 Stoichiometry    C2H2N4O
 Framework group  C1[X(C2H2N4O)]
 Deg. of freedom    21
 Full point group                 C1      NOp   1
 Largest Abelian subgroup         C1      NOp   1
 Largest concise Abelian subgroup C1      NOp   1
                         Standard orientation:                         
 ---------------------------------------------------------------------
 Center     Atomic      Atomic             Coordinates (Angstroms)
 Number     Number       Type             X           Y           Z
 ---------------------------------------------------------------------
      1          7           0       -0.662996    1.787768    0.080099
      2          6           0       -0.453911    0.515590    0.086381
      3          7           0       -1.582422   -0.465834    0.021090
      4          7           0       -2.457619   -1.094343   -0.108366
      5          8           0        2.589367   -0.553163    0.112702
      6          7           0        1.752328    0.191038   -0.339546
      7          6           0        0.634008   -0.347581    0.110342
      8          1           0       -1.627618    1.931585   -0.103500
      9          1           0        0.487070   -1.444744    0.448605
 ---------------------------------------------------------------------
 Rotational constants (GHZ):           6.0944354           1.7498100           1.3781394
 Standard basis: def2TZVP (5D, 7F)
 There are   264 symmetry adapted cartesian basis functions of A   symmetry.
 There are   229 symmetry adapted basis functions of A   symmetry.
   229 basis functions,   373 primitive gaussians,   264 cartesian basis functions
    25 alpha electrons       25 beta electrons
       nuclear repulsion energy       259.7851628781 Hartrees.
 NAtoms=    9 NActive=    9 NUniq=    9 SFac= 1.00D+00 NAtFMM=   60 NAOKFM=F Big=F
 Integral buffers will be    131072 words long.
 Raffenetti 2 integral format.
 Two-electron integral symmetry is turned on.
 Nuclear repulsion after empirical dispersion term =      259.7825615736 Hartrees.
 One-electron integrals computed using PRISM.
   1 Symmetry operations used in ECPInt.
 ECPInt:  NShTT=    3655 NPrTT=   11788 LenC2=    3545 LenP2D=    9124.
 LDataN:  DoStor=T MaxTD1= 6 Len=  172
 NBasis=   229 RedAO= T EigKep=  1.24D-04  NBF=   229
 NBsUse=   229 1.00D-06 EigRej= -1.00D+00 NBFU=   229
 Initial guess from the checkpoint file:  "/scratch/23935644/Gau-27349.chk"
 B after Tr=     0.000000    0.000000    0.000000
         Rot=    0.999877    0.001656    0.002084   -0.015472 Ang=   1.80 deg.
 Initial guess <Sx>= 0.0000 <Sy>= 0.0000 <Sz>= 0.0000 <S**2>= 0.0000 S= 0.0000
 ExpMin= 9.52D-02 ExpMax= 2.70D+04 ExpMxC= 9.22D+02 IAcc=2 IRadAn=         4 AccDes= 0.00D+00
 Harris functional with IExCor= 4639 and IRadAn=       4 diagonalized for initial guess.
 HarFok:  IExCor= 4639 AccDes= 0.00D+00 IRadAn=         4 IDoV= 1 UseB2=F ITyADJ=14
 ICtDFT=  3500011 ScaDFX=  1.000000  1.000000  1.000000  1.000000
 FoFCou: FMM=F IPFlag=           0 FMFlag=      100000 FMFlg1=           0
         NFxFlg=           0 DoJE=T BraDBF=F KetDBF=T FulRan=T
         wScrn=  0.000000 ICntrl=       500 IOpCl=  0 I1Cent=   200000004 NGrid=           0
         NMat0=    1 NMatS0=      1 NMatT0=    0 NMatD0=    1 NMtDS0=    0 NMtDT0=    0
 Petite list used in FoFCou.
 Requested convergence on RMS density matrix=1.00D-08 within 128 cycles.
 Requested convergence on MAX density matrix=1.00D-06.
 Requested convergence on             energy=1.00D-06.
 No special actions if energy rises.
 Integral accuracy reduced to 1.0D-05 until final iterations.
 Initial convergence to 1.0D-05 achieved.  Increase integral accuracy.
 SCF Done:  E(UwB97XD) =  -371.418467236     A.U. after   23 cycles
            NFock= 23  Conv=0.64D-08     -V/T= 2.0028
 <Sx>= 0.0000 <Sy>= 0.0000 <Sz>= 0.0000 <S**2>= 0.0000 S= 0.0000
 <L.S>=  0.00000000000    
 Annihilation of the first spin contaminant:
 S**2 before annihilation     0.0000,   after     0.0000
   1 Symmetry operations used in ECPInt.
 ECPInt:  NShTT=    3655 NPrTT=   11788 LenC2=    3545 LenP2D=    9124.
 LDataN:  DoStor=T MaxTD1= 7 Len=  274
 Calling FoFJK, ICntrl=      2127 FMM=F ISym2X=0 I1Cent= 0 IOpClX= 1 NMat=1 NMatS=1 NMatT=0.
 ***** Axes restored to original set *****
 -------------------------------------------------------------------
 Center     Atomic                   Forces (Hartrees/Bohr)
 Number     Number              X              Y              Z
 -------------------------------------------------------------------
      1        7           0.006368722   -0.022258166    0.033613930
      2        6           0.019783687    0.009626546   -0.015724658
      3        7          -0.010286549    0.020520963   -0.007374610
      4        7          -0.021824045   -0.014622805    0.014284547
      5        8           0.089686714   -0.021351069    0.001745666
      6        7           0.011629737    0.006014015    0.013210754
      7        6          -0.087243688    0.001714962    0.015901970
      8        1          -0.020517187    0.007407008   -0.014749519
      9        1           0.012402610    0.012948546   -0.040908080
 -------------------------------------------------------------------
 Cartesian Forces:  Max     0.089686714 RMS     0.029361635

 GradGradGradGradGradGradGradGradGradGradGradGradGradGradGradGradGradGrad
 Berny optimization.
 Using GEDIIS/GDIIS optimizer.
 FormGI is forming the generalized inverse of G from B-inverse, IUseBI=4.
 Internal  Forces:  Max     0.135113129 RMS     0.036726311
 Search for a local minimum.
 Step number   3 out of a maximum of   37
 All quantities printed in internal units (Hartrees-Bohrs-Radians)
 Mixed Optimization -- RFO/linear search
 Update second derivatives using D2CorX and points    2    3
 DE= -8.47D-03 DEPred=-4.65D-02 R= 1.82D-01
 Trust test= 1.82D-01 RLast= 9.85D-01 DXMaxT set to 5.05D-01
 ITU=  0  1  0
 Use linear search instead of GDIIS.
     Eigenvalues ---    0.01220   0.02073   0.02243   0.02407   0.02938
     Eigenvalues ---    0.03705   0.14571   0.16749   0.16876   0.22218
     Eigenvalues ---    0.24998   0.26595   0.29434   0.35713   0.40616
     Eigenvalues ---    0.47378   0.62142   0.72944   0.98459   1.24730
     Eigenvalues ---    1.46683
 RFO step:  Lambda=-2.79494937D-02 EMin= 1.22036907D-02
 Quartic linear search produced a step of -0.35179.
 Iteration  1 RMS(Cart)=  0.11418089 RMS(Int)=  0.01745969
 Iteration  2 RMS(Cart)=  0.02812253 RMS(Int)=  0.00171328
 Iteration  3 RMS(Cart)=  0.00102482 RMS(Int)=  0.00140738
 Iteration  4 RMS(Cart)=  0.00000079 RMS(Int)=  0.00140738
 Variable       Old X    -DE/DX   Delta X   Delta X   Delta X     New X
                                 (Linear)    (Quad)   (Total)
    R1        2.43635  -0.02106   0.00210  -0.02014  -0.01804   2.41831
    R2        1.87539   0.02253   0.01336   0.01802   0.03138   1.90678
    R3        2.82891   0.02587  -0.08436   0.09504   0.01068   2.83959
    R4        2.62475   0.01662   0.04353  -0.01781   0.02572   2.65048
    R5        2.05081   0.02952   0.02523  -0.00565   0.01958   2.07039
    R6        2.28258   0.07031  -0.00711   0.04464   0.03753   2.32011
    R7        2.49497   0.07300  -0.04036   0.08372   0.04335   2.53833
    R8        2.18734  -0.04368  -0.04001  -0.03084  -0.07085   2.11648
    A1        1.87709   0.02544   0.04090   0.02737   0.06828   1.94537
    A2        2.12286  -0.02289   0.00280  -0.05633  -0.05436   2.06849
    A3        2.40435  -0.00439  -0.07537   0.07315  -0.00272   2.40163
    A4        1.75564   0.02731   0.07074  -0.02064   0.04903   1.80467
    A5        3.02178   0.00117  -0.06292   0.07268   0.00976   3.03154
    A6        1.78037   0.13511   0.26284  -0.00442   0.25842   2.03878
    A7        1.98673   0.02489   0.03366   0.02154   0.05476   2.04149
    A8        2.08825  -0.00334  -0.01827   0.02134   0.00264   2.09089
    A9        2.20657  -0.02136  -0.01571  -0.03964  -0.05578   2.15079
    D1       -0.13945  -0.00232   0.04191  -0.13312  -0.09469  -0.23414
    D2        2.96819  -0.00008   0.09674  -0.32705  -0.22682   2.74136
    D3        0.65708   0.00123  -0.01881   0.08615   0.06392   0.72101
    D4       -2.46129  -0.00007  -0.06464   0.21677   0.15554  -2.30574
    D5       -0.40175   0.00341  -0.01058   0.07662   0.06702  -0.33473
    D6        2.79725   0.00074  -0.00494   0.02107   0.01631   2.81356
    D7        2.71043   0.00479   0.03896  -0.09224  -0.05346   2.65697
    D8       -0.37375   0.00211   0.04460  -0.14779  -0.10417  -0.47793
    D9        2.81723   0.00641  -0.01265   0.09239   0.08051   2.89774
   D10       -0.38637   0.01016  -0.01863   0.15498   0.13558  -0.25080
         Item               Value     Threshold  Converged?
 Maximum Force            0.135113     0.000450     NO 
 RMS     Force            0.036726     0.000300     NO 
 Maximum Displacement     0.349203     0.001800     NO 
 RMS     Displacement     0.132238     0.001200     NO 
 Predicted change in Energy=-3.242986D-02
 GradGradGradGradGradGradGradGradGradGradGradGradGradGradGradGradGradGrad

                          Input orientation:                          
 ---------------------------------------------------------------------
 Center     Atomic      Atomic             Coordinates (Angstroms)
 Number     Number       Type             X           Y           Z
 ---------------------------------------------------------------------
      1          7           0       -0.575262    0.113978   -1.342952
      2          6           0       -0.331122   -0.589932   -0.302485
      3          7           0       -1.490350   -1.131114    0.485712
      4          7           0       -2.387570   -1.550167    0.954474
      5          8           0        2.916466   -1.645355    0.118962
      6          7           0        1.868273   -1.375954   -0.460761
      7          6           0        0.782786   -1.185532    0.307165
      8          1           0       -1.541276    0.035295   -1.623580
      9          1           0        0.734128   -1.483183    1.385787
 ---------------------------------------------------------------------
                    Distance matrix (angstroms):
                    1          2          3          4          5
     1  N    0.000000
     2  C    1.279712   0.000000
     3  N    2.394087   1.502645   0.000000
     4  N    3.366304   2.594412   1.095603   0.000000
     5  O    4.174280   3.440693   4.451851   5.370283   0.000000
     6  N    2.994832   2.340987   3.498015   4.488367   1.227748
     7  C    2.501182   1.402571   2.280787   3.256244   2.190764
     8  H    1.009022   1.897543   2.410854   3.142652   5.072721
     9  H    3.422199   2.186989   2.425364   3.152066   2.528586
                    6          7          8          9
     6  N    0.000000
     7  C    1.343225   0.000000
     8  H    3.868952   3.258751   0.000000
     9  H    2.169683   1.119995   4.066882   0.000000
 Stoichiometry    C2H2N4O
 Framework group  C1[X(C2H2N4O)]
 Deg. of freedom    21
 Full point group                 C1      NOp   1
 Largest Abelian subgroup         C1      NOp   1
 Largest concise Abelian subgroup C1      NOp   1
                         Standard orientation:                         
 ---------------------------------------------------------------------
 Center     Atomic      Atomic             Coordinates (Angstroms)
 Number     Number       Type             X           Y           Z
 ---------------------------------------------------------------------
      1          7           0       -0.729933    1.749291    0.052286
      2          6           0       -0.498203    0.494282    0.146724
      3          7           0       -1.653188   -0.459469    0.027097
      4          7           0       -2.535293   -1.084771   -0.149635
      5          8           0        2.798571   -0.480572    0.007774
      6          7           0        1.779375    0.146148   -0.267594
      7          6           0        0.619212   -0.352284    0.190489
      8          1           0       -1.654712    1.927737   -0.309746
      9          1           0        0.513362   -1.393540    0.589201
 ---------------------------------------------------------------------
 Rotational constants (GHZ):           6.4103940           1.5868404           1.2880278
 Standard basis: def2TZVP (5D, 7F)
 There are   264 symmetry adapted cartesian basis functions of A   symmetry.
 There are   229 symmetry adapted basis functions of A   symmetry.
   229 basis functions,   373 primitive gaussians,   264 cartesian basis functions
    25 alpha electrons       25 beta electrons
       nuclear repulsion energy       254.6488298403 Hartrees.
 NAtoms=    9 NActive=    9 NUniq=    9 SFac= 1.00D+00 NAtFMM=   60 NAOKFM=F Big=F
 Integral buffers will be    131072 words long.
 Raffenetti 2 integral format.
 Two-electron integral symmetry is turned on.
 Nuclear repulsion after empirical dispersion term =      254.6462252934 Hartrees.
 One-electron integrals computed using PRISM.
   1 Symmetry operations used in ECPInt.
 ECPInt:  NShTT=    3655 NPrTT=   11788 LenC2=    3522 LenP2D=    9053.
 LDataN:  DoStor=T MaxTD1= 6 Len=  172
 NBasis=   229 RedAO= T EigKep=  1.36D-04  NBF=   229
 NBsUse=   229 1.00D-06 EigRej= -1.00D+00 NBFU=   229
 Initial guess from the checkpoint file:  "/scratch/23935644/Gau-27349.chk"
 B after Tr=    -0.000000   -0.000000   -0.000000
         Rot=    0.999982    0.002605   -0.000299   -0.005329 Ang=   0.68 deg.
 Initial guess <Sx>= 0.0000 <Sy>= 0.0000 <Sz>= 0.0000 <S**2>= 0.0000 S= 0.0000
 ExpMin= 9.52D-02 ExpMax= 2.70D+04 ExpMxC= 9.22D+02 IAcc=2 IRadAn=         4 AccDes= 0.00D+00
 Harris functional with IExCor= 4639 and IRadAn=       4 diagonalized for initial guess.
 HarFok:  IExCor= 4639 AccDes= 0.00D+00 IRadAn=         4 IDoV= 1 UseB2=F ITyADJ=14
 ICtDFT=  3500011 ScaDFX=  1.000000  1.000000  1.000000  1.000000
 FoFCou: FMM=F IPFlag=           0 FMFlag=      100000 FMFlg1=           0
         NFxFlg=           0 DoJE=T BraDBF=F KetDBF=T FulRan=T
         wScrn=  0.000000 ICntrl=       500 IOpCl=  0 I1Cent=   200000004 NGrid=           0
         NMat0=    1 NMatS0=      1 NMatT0=    0 NMatD0=    1 NMtDS0=    0 NMtDT0=    0
 Petite list used in FoFCou.
 Requested convergence on RMS density matrix=1.00D-08 within 128 cycles.
 Requested convergence on MAX density matrix=1.00D-06.
 Requested convergence on             energy=1.00D-06.
 No special actions if energy rises.
 Integral accuracy reduced to 1.0D-05 until final iterations.
 Initial convergence to 1.0D-05 achieved.  Increase integral accuracy.
 SCF Done:  E(UwB97XD) =  -371.445992191     A.U. after   21 cycles
            NFock= 21  Conv=0.32D-08     -V/T= 2.0039
 <Sx>= 0.0000 <Sy>= 0.0000 <Sz>= 0.0000 <S**2>= 0.0000 S= 0.0000
 <L.S>=  0.00000000000    
 Annihilation of the first spin contaminant:
 S**2 before annihilation     0.0000,   after    -0.0000
   1 Symmetry operations used in ECPInt.
 ECPInt:  NShTT=    3655 NPrTT=   11788 LenC2=    3522 LenP2D=    9053.
 LDataN:  DoStor=T MaxTD1= 7 Len=  274
 Calling FoFJK, ICntrl=      2127 FMM=F ISym2X=0 I1Cent= 0 IOpClX= 1 NMat=1 NMatS=1 NMatT=0.
 ***** Axes restored to original set *****
 -------------------------------------------------------------------
 Center     Atomic                   Forces (Hartrees/Bohr)
 Number     Number              X              Y              Z
 -------------------------------------------------------------------
      1        7          -0.000929994   -0.015127004    0.022355473
      2        6           0.029868527    0.000563525   -0.024973483
      3        7          -0.027491414   -0.002874089    0.014643533
      4        7           0.004771977    0.000849734   -0.003270574
      5        8          -0.007340585   -0.003794174   -0.000913671
      6        7           0.023969263    0.004319279   -0.008685015
      7        6          -0.023193430    0.003732776    0.025227529
      8        1          -0.004227327    0.006206382   -0.005815426
      9        1           0.004572984    0.006123570   -0.018568367
 -------------------------------------------------------------------
 Cartesian Forces:  Max     0.029868527 RMS     0.014501172

 GradGradGradGradGradGradGradGradGradGradGradGradGradGradGradGradGradGrad
 Berny optimization.
 Using GEDIIS/GDIIS optimizer.
 FormGI is forming the generalized inverse of G from B-inverse, IUseBI=4.
 Internal  Forces:  Max     0.024222205 RMS     0.009332632
 Search for a local minimum.
 Step number   4 out of a maximum of   37
 All quantities printed in internal units (Hartrees-Bohrs-Radians)
 Mixed Optimization -- RFO/linear search
 Update second derivatives using D2CorX and points    3    4
 DE= -2.75D-02 DEPred=-3.24D-02 R= 8.49D-01
 TightC=F SS=  1.41D+00  RLast= 4.75D-01 DXNew= 8.4853D-01 1.4256D+00
 Trust test= 8.49D-01 RLast= 4.75D-01 DXMaxT set to 8.49D-01
 ITU=  1  0  1  0
 Use linear search instead of GDIIS.
     Eigenvalues ---    0.01222   0.02039   0.02089   0.02355   0.02866
     Eigenvalues ---    0.03643   0.15373   0.16680   0.18907   0.22286
     Eigenvalues ---    0.24944   0.26395   0.35618   0.37252   0.39336
     Eigenvalues ---    0.45686   0.58639   0.74988   0.99451   1.21434
     Eigenvalues ---    1.47277
 RFO step:  Lambda=-8.69165088D-03 EMin= 1.22222189D-02
 Quartic linear search produced a step of  0.06262.
 Iteration  1 RMS(Cart)=  0.06704025 RMS(Int)=  0.00501243
 Iteration  2 RMS(Cart)=  0.00507520 RMS(Int)=  0.00064256
 Iteration  3 RMS(Cart)=  0.00005324 RMS(Int)=  0.00064047
 Iteration  4 RMS(Cart)=  0.00000001 RMS(Int)=  0.00064047
 Variable       Old X    -DE/DX   Delta X   Delta X   Delta X     New X
                                 (Linear)    (Quad)   (Total)
    R1        2.41831  -0.01737  -0.00113  -0.02091  -0.02204   2.39627
    R2        1.90678   0.00518   0.00197   0.00157   0.00354   1.91031
    R3        2.83959   0.02422   0.00067   0.09464   0.09531   2.93490
    R4        2.65048  -0.00727   0.00161  -0.01866  -0.01705   2.63343
    R5        2.07039  -0.00563   0.00123  -0.00964  -0.00841   2.06198
    R6        2.32011  -0.00587   0.00235  -0.00042   0.00193   2.32204
    R7        2.53833   0.01885   0.00271   0.03591   0.03862   2.57695
    R8        2.11648  -0.01971  -0.00444  -0.03260  -0.03704   2.07944
    A1        1.94537   0.01445   0.00428   0.06547   0.06974   2.01511
    A2        2.06849  -0.00882  -0.00340  -0.03035  -0.03468   2.03381
    A3        2.40163  -0.00044  -0.00017   0.02883   0.02783   2.42947
    A4        1.80467   0.00978   0.00307   0.01107   0.01325   1.81792
    A5        3.03154  -0.00198   0.00061   0.02489   0.02551   3.05704
    A6        2.03878  -0.00578   0.01618  -0.03674  -0.02055   2.01823
    A7        2.04149   0.00290   0.00343   0.00903   0.01156   2.05305
    A8        2.09089   0.00189   0.00017   0.02584   0.02507   2.11596
    A9        2.15079  -0.00478  -0.00349  -0.03442  -0.03877   2.11202
    D1       -0.23414  -0.00069  -0.00593  -0.03929  -0.04497  -0.27911
    D2        2.74136   0.00501  -0.01420   0.05441   0.03995   2.78132
    D3        0.72101   0.00194   0.00400   0.07904   0.08209   0.80310
    D4       -2.30574  -0.00166   0.00974   0.01122   0.02192  -2.28383
    D5       -0.33473  -0.00022   0.00420   0.05577   0.05997  -0.27476
    D6        2.81356  -0.00096   0.00102  -0.01664  -0.01664   2.79692
    D7        2.65697   0.00384  -0.00335   0.13731   0.13498   2.79195
    D8       -0.47793   0.00310  -0.00652   0.06489   0.05837  -0.41956
    D9        2.89774   0.00513   0.00504   0.10150   0.10761   3.00536
   D10       -0.25080   0.00592   0.00849   0.17689   0.18431  -0.06649
         Item               Value     Threshold  Converged?
 Maximum Force            0.024222     0.000450     NO 
 RMS     Force            0.009333     0.000300     NO 
 Maximum Displacement     0.156769     0.001800     NO 
 RMS     Displacement     0.065427     0.001200     NO 
 Predicted change in Energy=-4.804697D-03
 GradGradGradGradGradGradGradGradGradGradGradGradGradGradGradGradGradGrad

                          Input orientation:                          
 ---------------------------------------------------------------------
 Center     Atomic      Atomic             Coordinates (Angstroms)
 Number     Number       Type             X           Y           Z
 ---------------------------------------------------------------------
      1          7           0       -0.596900    0.094934   -1.340606
      2          6           0       -0.323848   -0.623862   -0.332279
      3          7           0       -1.529779   -1.134664    0.502511
      4          7           0       -2.417410   -1.516551    1.009348
      5          8           0        2.927273   -1.672378    0.169857
      6          7           0        1.935157   -1.292995   -0.447921
      7          6           0        0.784976   -1.205519    0.279410
      8          1           0       -1.558386    0.060931   -1.650923
      9          1           0        0.754992   -1.521860    1.332925
 ---------------------------------------------------------------------
                    Distance matrix (angstroms):
                    1          2          3          4          5
     1  N    0.000000
     2  C    1.268050   0.000000
     3  N    2.404008   1.553082   0.000000
     4  N    3.381335   2.641943   1.091152   0.000000
     5  O    4.221929   3.452725   4.501678   5.412455   0.000000
     6  N    3.022341   2.358859   3.596411   4.595482   1.228769
     7  C    2.495038   1.393549   2.326561   3.299217   2.195311
     8  H    1.010894   1.931799   2.463239   3.209894   5.142055
     9  H    3.404322   2.177889   2.461643   3.188866   2.468641
                    6          7          8          9
     6  N    0.000000
     7  C    1.363664   0.000000
     8  H    3.935120   3.289594   0.000000
     9  H    2.148624   1.100393   4.093934   0.000000
 Stoichiometry    C2H2N4O
 Framework group  C1[X(C2H2N4O)]
 Deg. of freedom    21
 Full point group                 C1      NOp   1
 Largest Abelian subgroup         C1      NOp   1
 Largest concise Abelian subgroup C1      NOp   1
                         Standard orientation:                         
 ---------------------------------------------------------------------
 Center     Atomic      Atomic             Coordinates (Angstroms)
 Number     Number       Type             X           Y           Z
 ---------------------------------------------------------------------
      1          7           0       -0.747350    1.743771    0.053804
      2          6           0       -0.482861    0.504578    0.102772
      3          7           0       -1.691703   -0.466674    0.016549
      4          7           0       -2.571941   -1.098062   -0.114378
      5          8           0        2.809484   -0.530066   -0.003424
      6          7           0        1.836813    0.196147   -0.194207
      7          6           0        0.627710   -0.336211    0.143792
      8          1           0       -1.670617    1.977974   -0.284775
      9          1           0        0.544919   -1.373920    0.500403
 ---------------------------------------------------------------------
 Rotational constants (GHZ):           6.3813519           1.5494987           1.2556991
 Standard basis: def2TZVP (5D, 7F)
 There are   264 symmetry adapted cartesian basis functions of A   symmetry.
 There are   229 symmetry adapted basis functions of A   symmetry.
   229 basis functions,   373 primitive gaussians,   264 cartesian basis functions
    25 alpha electrons       25 beta electrons
       nuclear repulsion energy       252.9705025744 Hartrees.
 NAtoms=    9 NActive=    9 NUniq=    9 SFac= 1.00D+00 NAtFMM=   60 NAOKFM=F Big=F
 Integral buffers will be    131072 words long.
 Raffenetti 2 integral format.
 Two-electron integral symmetry is turned on.
 Nuclear repulsion after empirical dispersion term =      252.9679218066 Hartrees.
 One-electron integrals computed using PRISM.
   1 Symmetry operations used in ECPInt.
 ECPInt:  NShTT=    3655 NPrTT=   11788 LenC2=    3519 LenP2D=    9025.
 LDataN:  DoStor=T MaxTD1= 6 Len=  172
 NBasis=   229 RedAO= T EigKep=  1.33D-04  NBF=   229
 NBsUse=   229 1.00D-06 EigRej= -1.00D+00 NBFU=   229
 Initial guess from the checkpoint file:  "/scratch/23935644/Gau-27349.chk"
 B after Tr=    -0.000000    0.000000    0.000000
         Rot=    0.999999   -0.001246    0.000179    0.000839 Ang=  -0.17 deg.
 Initial guess <Sx>= 0.0000 <Sy>= 0.0000 <Sz>= 0.0000 <S**2>= 0.0000 S= 0.0000
 ExpMin= 9.52D-02 ExpMax= 2.70D+04 ExpMxC= 9.22D+02 IAcc=2 IRadAn=         4 AccDes= 0.00D+00
 Harris functional with IExCor= 4639 and IRadAn=       4 diagonalized for initial guess.
 HarFok:  IExCor= 4639 AccDes= 0.00D+00 IRadAn=         4 IDoV= 1 UseB2=F ITyADJ=14
 ICtDFT=  3500011 ScaDFX=  1.000000  1.000000  1.000000  1.000000
 FoFCou: FMM=F IPFlag=           0 FMFlag=      100000 FMFlg1=           0
         NFxFlg=           0 DoJE=T BraDBF=F KetDBF=T FulRan=T
         wScrn=  0.000000 ICntrl=       500 IOpCl=  0 I1Cent=   200000004 NGrid=           0
         NMat0=    1 NMatS0=      1 NMatT0=    0 NMatD0=    1 NMtDS0=    0 NMtDT0=    0
 Petite list used in FoFCou.
 Requested convergence on RMS density matrix=1.00D-08 within 128 cycles.
 Requested convergence on MAX density matrix=1.00D-06.
 Requested convergence on             energy=1.00D-06.
 No special actions if energy rises.
 Integral accuracy reduced to 1.0D-05 until final iterations.
 Initial convergence to 1.0D-05 achieved.  Increase integral accuracy.
 SCF Done:  E(UwB97XD) =  -371.452950910     A.U. after   22 cycles
            NFock= 22  Conv=0.24D-08     -V/T= 2.0039
 <Sx>= 0.0000 <Sy>= 0.0000 <Sz>= 0.0000 <S**2>=-0.0000 S=-0.0000
 <L.S>=  0.00000000000    
 Annihilation of the first spin contaminant:
 S**2 before annihilation    -0.0000,   after    -0.0000
   1 Symmetry operations used in ECPInt.
 ECPInt:  NShTT=    3655 NPrTT=   11788 LenC2=    3519 LenP2D=    9025.
 LDataN:  DoStor=T MaxTD1= 7 Len=  274
 Calling FoFJK, ICntrl=      2127 FMM=F ISym2X=0 I1Cent= 0 IOpClX= 1 NMat=1 NMatS=1 NMatT=0.
 ***** Axes restored to original set *****
 -------------------------------------------------------------------
 Center     Atomic                   Forces (Hartrees/Bohr)
 Number     Number              X              Y              Z
 -------------------------------------------------------------------
      1        7          -0.002418121   -0.011854549    0.017127392
      2        6           0.029508278    0.010390344   -0.030810613
      3        7          -0.019544768   -0.007014500    0.018512928
      4        7          -0.001663913   -0.000090610   -0.001898015
      5        8          -0.009782887    0.001521051   -0.002823974
      6        7           0.011869381   -0.000363283   -0.001196680
      7        6          -0.008692749    0.002501052    0.012630605
      8        1           0.000202314    0.003159121   -0.002698292
      9        1           0.000522464    0.001751374   -0.008843350
 -------------------------------------------------------------------
 Cartesian Forces:  Max     0.030810613 RMS     0.011764138

 GradGradGradGradGradGradGradGradGradGradGradGradGradGradGradGradGradGrad
 Berny optimization.
 Using GEDIIS/GDIIS optimizer.
 FormGI is forming the generalized inverse of G from B-inverse, IUseBI=4.
 Internal  Forces:  Max     0.027735317 RMS     0.007301479
 Search for a local minimum.
 Step number   5 out of a maximum of   37
 All quantities printed in internal units (Hartrees-Bohrs-Radians)
 Mixed Optimization -- RFO/linear search
 Update second derivatives using D2CorX and points    4    5
 DE= -6.96D-03 DEPred=-4.80D-03 R= 1.45D+00
 TightC=F SS=  1.41D+00  RLast= 3.24D-01 DXNew= 1.4270D+00 9.7236D-01
 Trust test= 1.45D+00 RLast= 3.24D-01 DXMaxT set to 9.72D-01
 ITU=  1  1  0  1  0
 Use linear search instead of GDIIS.
     Eigenvalues ---    0.01197   0.01970   0.02090   0.02213   0.02792
     Eigenvalues ---    0.03457   0.10433   0.16131   0.18462   0.22357
     Eigenvalues ---    0.24819   0.26862   0.29982   0.35728   0.38168
     Eigenvalues ---    0.45414   0.57835   0.75143   0.99302   1.28151
     Eigenvalues ---    1.47768
[...]
     9  H    2.395535   1.135803   4.233881   0.000000
 Stoichiometry    C2H2N4O
 Framework group  C1[X(C2H2N4O)]
 Deg. of freedom    21
 Full point group                 C1      NOp   1
 Largest Abelian subgroup         C1      NOp   1
 Largest concise Abelian subgroup C1      NOp   1
                         Standard orientation:                         
 ---------------------------------------------------------------------
 Center     Atomic      Atomic             Coordinates (Angstroms)
 Number     Number       Type             X           Y           Z
 ---------------------------------------------------------------------
      1          7           0       -0.541468    1.841059   -0.042825
      2          6           0        0.100943    0.850825   -0.013050
      3          7           0       -2.487007   -0.564103    0.085339
      4          7           0       -3.500186   -0.940498   -0.066157
      5          8           0        3.035619   -0.942560    0.053031
      6          7           0        2.334300    0.042474   -0.084054
      7          6           0        0.831234   -0.274784    0.020879
      8          1           0       -0.869359    2.733659    0.333842
      9          1           0        0.351867   -1.301946   -0.051186
 ---------------------------------------------------------------------
 Rotational constants (GHZ):           5.1681612           1.0194625           0.8527742
 Standard basis: def2TZVP (5D, 7F)
 There are   264 symmetry adapted cartesian basis functions of A   symmetry.
 There are   229 symmetry adapted basis functions of A   symmetry.
   229 basis functions,   373 primitive gaussians,   264 cartesian basis functions
    25 alpha electrons       25 beta electrons
       nuclear repulsion energy       225.8292290239 Hartrees.
 NAtoms=    9 NActive=    9 NUniq=    9 SFac= 1.00D+00 NAtFMM=   60 NAOKFM=F Big=F
 Integral buffers will be    131072 words long.
 Raffenetti 2 integral format.
 Two-electron integral symmetry is turned on.
 Nuclear repulsion after empirical dispersion term =      225.8267585406 Hartrees.
 One-electron integrals computed using PRISM.
   1 Symmetry operations used in ECPInt.
 ECPInt:  NShTT=    3655 NPrTT=   11788 LenC2=    3423 LenP2D=    8530.
 LDataN:  DoStor=T MaxTD1= 6 Len=  172
 NBasis=   229 RedAO= T EigKep=  8.63D-05  NBF=   229
 NBsUse=   229 1.00D-06 EigRej= -1.00D+00 NBFU=   229
 Initial guess from the checkpoint file:  "/scratch/23935644/Gau-27349.chk"
 B after Tr=     0.000000   -0.000000   -0.000000
         Rot=    1.000000    0.000008    0.000007    0.000622 Ang=   0.07 deg.
 Initial guess <Sx>= 0.0000 <Sy>= 0.0000 <Sz>= 0.0000 <S**2>=-0.0000 S=-0.0000
 ExpMin= 9.52D-02 ExpMax= 2.70D+04 ExpMxC= 9.22D+02 IAcc=2 IRadAn=         4 AccDes= 0.00D+00
 Harris functional with IExCor= 4639 and IRadAn=       4 diagonalized for initial guess.
 HarFok:  IExCor= 4639 AccDes= 0.00D+00 IRadAn=         4 IDoV= 1 UseB2=F ITyADJ=14
 ICtDFT=  3500011 ScaDFX=  1.000000  1.000000  1.000000  1.000000
 FoFCou: FMM=F IPFlag=           0 FMFlag=      100000 FMFlg1=           0
         NFxFlg=           0 DoJE=T BraDBF=F KetDBF=T FulRan=T
         wScrn=  0.000000 ICntrl=       500 IOpCl=  0 I1Cent=   200000004 NGrid=           0
         NMat0=    1 NMatS0=      1 NMatT0=    0 NMatD0=    1 NMtDS0=    0 NMtDT0=    0
 Petite list used in FoFCou.
 Requested convergence on RMS density matrix=1.00D-08 within 128 cycles.
 Requested convergence on MAX density matrix=1.00D-06.
 Requested convergence on             energy=1.00D-06.
 No special actions if energy rises.
 Integral accuracy reduced to 1.0D-05 until final iterations.
 Initial convergence to 1.0D-05 achieved.  Increase integral accuracy.
 SCF Done:  E(UwB97XD) =  -371.526769445     A.U. after   14 cycles
            NFock= 14  Conv=0.67D-08     -V/T= 2.0049
 <Sx>= 0.0000 <Sy>= 0.0000 <Sz>= 0.0000 <S**2>=-0.0000 S=-0.0000
 <L.S>=  0.00000000000    
 Annihilation of the first spin contaminant:
 S**2 before annihilation    -0.0000,   after    -0.0000
   1 Symmetry operations used in ECPInt.
 ECPInt:  NShTT=    3655 NPrTT=   11788 LenC2=    3423 LenP2D=    8530.
 LDataN:  DoStor=T MaxTD1= 7 Len=  274
 Calling FoFJK, ICntrl=      2127 FMM=F ISym2X=0 I1Cent= 0 IOpClX= 1 NMat=1 NMatS=1 NMatT=0.
 ***** Axes restored to original set *****
 -------------------------------------------------------------------
 Center     Atomic                   Forces (Hartrees/Bohr)
 Number     Number              X              Y              Z
 -------------------------------------------------------------------
      1        7          -0.002669098   -0.000593443   -0.020903765
      2        6          -0.001257064    0.010980095    0.006761181
      3        7          -0.011898432   -0.004319536    0.008489223
      4        7           0.009239239    0.003116948   -0.005178613
      5        8          -0.023351962    0.006651227   -0.023567328
      6        7          -0.021046022   -0.010142066    0.052163685
      7        6           0.024935863   -0.012705142   -0.011932055
      8        1           0.011936655   -0.011778392    0.020239257
      9        1           0.014110821    0.018790309   -0.026071585
 -------------------------------------------------------------------
 Cartesian Forces:  Max     0.052163685 RMS     0.017455409

 GradGradGradGradGradGradGradGradGradGradGradGradGradGradGradGradGradGrad
 Berny optimization.
 Using GEDIIS/GDIIS optimizer.
 FormGI is forming the generalized inverse of G from B-inverse, IUseBI=4.
 Internal  Forces:  Max     0.052387718 RMS     0.015464479
 Search for a local minimum.
 Step number  14 out of a maximum of   37
 All quantities printed in internal units (Hartrees-Bohrs-Radians)
 Mixed Optimization -- RFO/linear search
 Update second derivatives using D2CorX and points   14   11
 ITU=  0 -1 -1 -1  1  1  1  1  1  1  1  0  1  0
 Use linear search instead of GDIIS.
 Energy rises -- skip Quadratic/GDIIS search.
 Quartic linear search produced a step of -0.85273.
 SLEqS3 Cycle:    34 Max:0.170986E-01 RMS: 1687.51     Conv:0.560970E-02
 Iteration  1 RMS(Cart)=  0.14010589 RMS(Int)=  0.18519140
 Iteration  2 RMS(Cart)=  0.00720472 RMS(Int)=  0.18571735
 Iteration  3 RMS(Cart)=  0.02814918 RMS(Int)=  0.18332992
 Iteration  4 RMS(Cart)=  0.05746467 RMS(Int)=  0.16087904
 Iteration  5 RMS(Cart)=  0.00920492 RMS(Int)=  0.09367618
 Iteration  6 RMS(Cart)=  0.00497894 RMS(Int)=  0.02743684
 Iteration  7 RMS(Cart)=  0.00435729 RMS(Int)=  0.00046668
 Iteration  8 RMS(Cart)=  0.00006616 RMS(Int)=  0.00046197
 Iteration  9 RMS(Cart)=  0.00000002 RMS(Int)=  0.00046197
 Variable       Old X    -DE/DX   Delta X   Delta X   Delta X     New X
                                 (Linear)    (Quad)   (Total)
    R1        2.23127  -0.01059   0.00930   0.00000   0.00930   2.24057
    R2        1.93282  -0.02440  -0.00159   0.00000  -0.00159   1.93123
    R3        5.57683   0.00430  -0.22407   0.00000  -0.22407   5.35277
    R4        2.53637  -0.01049   0.00377   0.00000   0.00377   2.54014
    R5        2.06245  -0.01103  -0.00111   0.00000  -0.00111   2.06134
    R6        2.29968  -0.03361  -0.00303   0.00000  -0.00303   2.29664
    R7        2.90973  -0.05239  -0.05688   0.00000  -0.05688   2.85285
    R8        2.14636  -0.03441  -0.06470   0.00000  -0.06470   2.08166
    A1        2.68380  -0.01433   0.13713   0.00000   0.13713   2.82092
    A2        1.49655   0.00190   0.01797   0.00000   0.01948   1.51603
    A3        3.14152   0.00173  -0.02134   0.00000  -0.02124   3.12028
    A4        1.64508  -0.00274  -0.02962   0.00000  -0.02811   1.61697
    A5        2.91665  -0.00063   0.02667   0.00000   0.02667   2.94332
    A6        1.96937   0.00496   0.03858   0.00000   0.03858   2.00795
    A7        1.93544   0.00753   0.02029   0.00000   0.02029   1.95574
    A8        2.12607   0.00194   0.03716   0.00000   0.03716   2.16323
    A9        2.20682  -0.00912  -0.05616   0.00000  -0.05615   2.15067
    D1        2.02040  -0.00267  -0.23846   0.00000  -0.23842   1.78198
    D2       -0.05658  -0.00275   0.68209   0.00000   0.68205   0.62547
    D3        0.84861  -0.00082   0.04111   0.00000   0.04187   0.89048
    D4       -2.29304   0.00070   0.02317   0.00000   0.02240  -2.27064
    D5       -1.11200  -0.00084  -0.55634   0.00000  -0.55640  -1.66840
    D6        2.20281  -0.00191  -0.55807   0.00000  -0.55808   1.64472
    D7        3.09421  -0.00103   0.36503   0.00000   0.36505  -2.82393
    D8        0.12583  -0.00209   0.36331   0.00000   0.36337   0.48920
    D9        3.04295   0.00213   0.05836   0.00000   0.05832   3.10127
   D10       -0.28172   0.00473   0.07126   0.00000   0.07130  -0.21042
         Item               Value     Threshold  Converged?
 Maximum Force            0.052388     0.000450     NO 
 RMS     Force            0.015464     0.000300     NO 
 Maximum Displacement     0.656218     0.001800     NO 
 RMS     Displacement     0.238530     0.001200     NO 
 Predicted change in Energy=-8.182159D-06
 GradGradGradGradGradGradGradGradGradGradGradGradGradGradGradGradGradGrad

                          Input orientation:                          
 ---------------------------------------------------------------------
 Center     Atomic      Atomic             Coordinates (Angstroms)
 Number     Number       Type             X           Y           Z
 ---------------------------------------------------------------------
      1          7           0       -0.788351   -0.260202   -1.467969
      2          6           0        0.016894   -0.765769   -0.759614
      3          7           0       -2.081585   -1.127393    1.108279
      4          7           0       -2.994593   -1.354220    1.660401
      5          8           0        3.205193   -1.396029    0.397340
      6          7           0        2.339003   -0.961250   -0.335948
      7          6           0        0.926849   -1.317160    0.061833
      8          1           0       -1.334818    0.444453   -1.967212
      9          1           0        0.687484   -2.074393    0.825212
 ---------------------------------------------------------------------
                    Distance matrix (angstroms):
                    1          2          3          4          5
     1  N    0.000000
     2  C    1.185658   0.000000
     3  N    3.010237   2.832562   0.000000
     4  N    3.981342   3.907916   1.090814   0.000000
     5  O    4.551689   3.449786   5.341126   6.327277   0.000000
     6  N    3.399012   2.368522   4.653492   5.708510   1.215331
     7  C    2.529697   1.344182   3.190883   4.234915   2.304265
     8  H    1.021963   2.179462   3.533695   4.376032   5.439686
     9  H    3.275372   2.161912   2.940183   3.843681   2.642369
                    6          7          8          9
     6  N    0.000000
     7  C    1.509662   0.000000
     8  H    4.258402   3.512185   0.000000
     9  H    2.305406   1.101565   4.269886   0.000000
 Stoichiometry    C2H2N4O
 Framework group  C1[X(C2H2N4O)]
 Deg. of freedom    21
 Full point group                 C1      NOp   1
 Largest Abelian subgroup         C1      NOp   1
 Largest concise Abelian subgroup C1      NOp   1
                         Standard orientation:                         
 ---------------------------------------------------------------------
 Center     Atomic      Atomic             Coordinates (Angstroms)
 Number     Number       Type             X           Y           Z
 ---------------------------------------------------------------------
      1          7           0       -0.609725    1.862764   -0.016565
      2          6           0        0.056251    0.886771   -0.115044
      3          7           0       -2.351916   -0.589473    0.096714
      4          7           0       -3.348396   -1.026757    0.021312
      5          8           0        2.977908   -0.936569    0.085884
      6          7           0        2.258425    0.042741    0.103908
      7          6           0        0.804388   -0.226753   -0.199787
      8          1           0       -1.066014    2.690388    0.372340
      9          1           0        0.440201   -1.182873   -0.608010
 ---------------------------------------------------------------------
 Rotational constants (GHZ):           4.9288073           1.0900499           0.8974850
 Standard basis: def2TZVP (5D, 7F)
 There are   264 symmetry adapted cartesian basis functions of A   symmetry.
 There are   229 symmetry adapted basis functions of A   symmetry.
   229 basis functions,   373 primitive gaussians,   264 cartesian basis functions
    25 alpha electrons       25 beta electrons
       nuclear repulsion energy       228.2755590789 Hartrees.
 NAtoms=    9 NActive=    9 NUniq=    9 SFac= 1.00D+00 NAtFMM=   60 NAOKFM=F Big=F
 Integral buffers will be    131072 words long.
 Raffenetti 2 integral format.
 Two-electron integral symmetry is turned on.
 Nuclear repulsion after empirical dispersion term =      228.2730776772 Hartrees.
 One-electron integrals computed using PRISM.
   1 Symmetry operations used in ECPInt.
 ECPInt:  NShTT=    3655 NPrTT=   11788 LenC2=    3439 LenP2D=    8594.
 LDataN:  DoStor=T MaxTD1= 6 Len=  172
 NBasis=   229 RedAO= T EigKep=  8.42D-05  NBF=   229
 NBsUse=   229 1.00D-06 EigRej= -1.00D+00 NBFU=   229
 Lowest energy guess from the checkpoint file:  "/scratch/23935644/Gau-27349.chk"
 B after Tr=    -0.000000    0.000000   -0.000000
         Rot=    0.999997    0.001232   -0.000073    0.002298 Ang=   0.30 deg.
 B after Tr=    -0.000000    0.000000    0.000000
         Rot=    0.999950   -0.001809    0.000112   -0.009875 Ang=  -1.15 deg.
 Initial guess <Sx>= 0.0000 <Sy>= 0.0000 <Sz>= 0.0000 <S**2>=-0.0000 S=-0.0000
 Requested convergence on RMS density matrix=1.00D-08 within 128 cycles.
 Requested convergence on MAX density matrix=1.00D-06.
 Requested convergence on             energy=1.00D-06.
 No special actions if energy rises.
 Integral accuracy reduced to 1.0D-05 until final iterations.
 Initial convergence to 1.0D-05 achieved.  Increase integral accuracy.
 SCF Done:  E(UwB97XD) =  -371.528248829     A.U. after   13 cycles
            NFock= 13  Conv=0.60D-08     -V/T= 2.0048
 <Sx>= 0.0000 <Sy>= 0.0000 <Sz>= 0.0000 <S**2>=-0.0000 S=-0.0000
 <L.S>=  0.00000000000    
 Annihilation of the first spin contaminant:
 S**2 before annihilation    -0.0000,   after     0.0000
   1 Symmetry operations used in ECPInt.
 ECPInt:  NShTT=    3655 NPrTT=   11788 LenC2=    3439 LenP2D=    8594.
 LDataN:  DoStor=T MaxTD1= 7 Len=  274
 Calling FoFJK, ICntrl=      2127 FMM=F ISym2X=0 I1Cent= 0 IOpClX= 1 NMat=1 NMatS=1 NMatT=0.
 ***** Axes restored to original set *****
 -------------------------------------------------------------------
 Center     Atomic                   Forces (Hartrees/Bohr)
 Number     Number              X              Y              Z
 -------------------------------------------------------------------
      1        7           0.012041946   -0.004436212   -0.008456730
      2        6          -0.015793820    0.016264392   -0.004860572
      3        7          -0.011792218   -0.003512820    0.009668831
      4        7           0.007294740    0.002069641   -0.004598210
      5        8          -0.022920433    0.005628976   -0.014967364
      6        7          -0.022131291   -0.015322405    0.026837786
      7        6           0.036544506    0.000786339   -0.014603450
      8        1           0.013084184   -0.014292806    0.018671396
      9        1           0.003672387    0.012814894   -0.007691687
 -------------------------------------------------------------------
 Cartesian Forces:  Max     0.036544506 RMS     0.014698916

 GradGradGradGradGradGradGradGradGradGradGradGradGradGradGradGradGradGrad
 Berny optimization.
 Using GEDIIS/GDIIS optimizer.
 FormGI is forming the generalized inverse of G from B-inverse, IUseBI=4.
 Internal  Forces:  Max     0.047553321 RMS     0.014216256
 Search for a local minimum.
 Step number  15 out of a maximum of   37
 All quantities printed in internal units (Hartrees-Bohrs-Radians)
 Mixed Optimization -- RFO/linear search
 Update second derivatives using D2CorX and points   11   15
 ITU=  0  0 -1 -1 -1  1  1  1  1  1  1  1  0  1  0
 Use linear search instead of GDIIS.
     Eigenvalues ---    0.00100   0.00406   0.01211   0.02171   0.02353
     Eigenvalues ---    0.03440   0.05609   0.13886   0.15242   0.18448
     Eigenvalues ---    0.21810   0.23305   0.28094   0.36727   0.45994
     Eigenvalues ---    0.48970   0.62690   0.77323   1.01936   1.33967
     Eigenvalues ---    1.79052
 RFO step:  Lambda=-7.80658814D-03 EMin= 9.98970318D-04
 Quartic linear search produced a step of -0.02291.
 Iteration  1 RMS(Cart)=  0.00517227 RMS(Int)=  0.04901230
 Iteration  2 RMS(Cart)=  0.00051098 RMS(Int)=  0.04846893
 Iteration  3 RMS(Cart)=  0.00049696 RMS(Int)=  0.04794032
 Iteration  4 RMS(Cart)=  0.00048357 RMS(Int)=  0.04742580
 Iteration  5 RMS(Cart)=  0.00047077 RMS(Int)=  0.04692476
 Iteration  6 RMS(Cart)=  0.00045852 RMS(Int)=  0.04643662
 Iteration  7 RMS(Cart)=  0.00044679 RMS(Int)=  0.04596084
 Iteration  8 RMS(Cart)=  0.00043554 RMS(Int)=  0.04549691
 Iteration  9 RMS(Cart)=  0.00042476 RMS(Int)=  0.04504434
 Iteration 10 RMS(Cart)=  0.00041440 RMS(Int)=  0.04460270
 Iteration 11 RMS(Cart)=  0.00040446 RMS(Int)=  0.04417154
 Iteration 12 RMS(Cart)=  0.00039490 RMS(Int)=  0.04375047
 Iteration 13 RMS(Cart)=  0.00038570 RMS(Int)=  0.04333911
 Iteration 14 RMS(Cart)=  0.00037684 RMS(Int)=  0.04293709
 Iteration 15 RMS(Cart)=  0.00036831 RMS(Int)=  0.04254407
 Iteration 16 RMS(Cart)=  0.00036009 RMS(Int)=  0.04215973
 Iteration 17 RMS(Cart)=  0.00035216 RMS(Int)=  0.04178376
 Iteration 18 RMS(Cart)=  0.00034451 RMS(Int)=  0.04141587
 Iteration 19 RMS(Cart)=  0.00033712 RMS(Int)=  0.04105579
 Iteration 20 RMS(Cart)=  0.00032998 RMS(Int)=  0.04070324
 Iteration 21 RMS(Cart)=  0.00032307 RMS(Int)=  0.04035798
 Iteration 22 RMS(Cart)=  0.00031640 RMS(Int)=  0.04001976
 Iteration 23 RMS(Cart)=  0.00030993 RMS(Int)=  0.03968837
 Iteration 24 RMS(Cart)=  0.00030367 RMS(Int)=  0.03936358
 Iteration 25 RMS(Cart)=  0.00029761 RMS(Int)=  0.03904519
 Iteration 26 RMS(Cart)=  0.00029173 RMS(Int)=  0.03873300
 Iteration 27 RMS(Cart)=  0.00028603 RMS(Int)=  0.03842681
 Iteration 28 RMS(Cart)=  0.00028050 RMS(Int)=  0.03812646
 Iteration 29 RMS(Cart)=  0.00027512 RMS(Int)=  0.03783177
 Iteration 30 RMS(Cart)=  0.00026990 RMS(Int)=  0.03754256
 Iteration 31 RMS(Cart)=  0.00026482 RMS(Int)=  0.03725870
 Iteration 32 RMS(Cart)=  0.00025989 RMS(Int)=  0.03698001
 Iteration 33 RMS(Cart)=  0.00025508 RMS(Int)=  0.03670636
 Iteration 34 RMS(Cart)=  0.00025039 RMS(Int)=  0.03643762
 Iteration 35 RMS(Cart)=  0.00024583 RMS(Int)=  0.03617364
 Iteration 36 RMS(Cart)=  0.00024137 RMS(Int)=  0.03591429
 Iteration 37 RMS(Cart)=  0.00023702 RMS(Int)=  0.03565946
 Iteration 38 RMS(Cart)=  0.00023276 RMS(Int)=  0.03540902
 Iteration 39 RMS(Cart)=  0.00022859 RMS(Int)=  0.03516285
 Iteration 40 RMS(Cart)=  0.00022451 RMS(Int)=  0.03492085
 Iteration 41 RMS(Cart)=  0.00022049 RMS(Int)=  0.03468288
 Iteration 42 RMS(Cart)=  0.00021653 RMS(Int)=  0.03444884
 Iteration 43 RMS(Cart)=  0.00021262 RMS(Int)=  0.03421859
 Iteration 44 RMS(Cart)=  0.00020874 RMS(Int)=  0.03399199
 Iteration 45 RMS(Cart)=  0.00020486 RMS(Int)=  0.03376883
 Iteration 46 RMS(Cart)=  0.00020095 RMS(Int)=  0.03354883
 Iteration 47 RMS(Cart)=  0.00019693 RMS(Int)=  0.03333142
 Iteration 48 RMS(Cart)=  0.00019268 RMS(Int)=  0.03311520
 Iteration 49 RMS(Cart)=  0.00018787 RMS(Int)=  0.03289432
 CrVal0: IPrim =       1193
 CrVal0: Division by zero detected!
 Error termination via Lnk1e in /software/kemi/g16/avx2/g16/l103.exe at Wed Jun 23 13:21:39 2021.
 Job cpu time:       0 days  4 hours 44 minutes 47.1 seconds.
 Elapsed time:       0 days  1 hours 12 minutes 26.0 seconds.
 File lengths (MBytes):  RWF=     64 Int=      0 D2E=      0 Chk=      6 Scr=      1
