 Entering Gaussian System, Link 0=/software/kemi/g16/avx2/g16/g16
 Initial command:
 /software/kemi/g16/avx2/g16/l1.exe "/scratch/23935644/Gau-14876.inp" -scrdir="/scratch/23935644/"
 Entering Link 1 = /software/kemi/g16/avx2/g16/l1.exe PID=     14877.
  
 Copyright (c) 1988,1990,1992,1993,1995,1998,2003,2009,2016,
            Gaussian, Inc.  All Rights Reserved.
  
 This is part of the Gaussian(R) 16 program.  It is based on
 the Gaussian(R) 09 system (copyright 2009, Gaussian, Inc.),
 the Gaussian(R) 03 system (copyright 2003, Gaussian, Inc.),
 the Gaussian(R) 98 system (copyright 1998, Gaussian, Inc.),
 the Gaussian(R) 94 system (copyright 1995, Gaussian, Inc.),
 the Gaussian 92(TM) system (copyright 1992, Gaussian, Inc.),
 the Gaussian 90(TM) system (copyright 1990, Gaussian, Inc.),
 the Gaussian 88(TM) system (copyright 1988, Gaussian, Inc.),
 the Gaussian 86(TM) system (copyright 1986, Carnegie Mellon
 University), and the Gaussian 82(TM) system (copyright 1983,
 Carnegie Mellon University). Gaussian is a federally registered
 trademark of Gaussian, Inc.
  
 This software contains proprietary and confidential information,
 including trade secrets, belonging to Gaussian, Inc.
  
 This software is provided under written license and may be
 used, copied, transmitted, or stored only in accord with that
 written license.
  
 The following legend is applicable only to US Government
 contracts under FAR:
  
                    RESTRICTED RIGHTS LEGEND
  
 Use, reproduction and disclosure by the US Government is
 subject to restrictions as set forth in subparagraphs (a)
 and (c) of the Commercial Computer Software - Restricted
 Rights clause in FAR 52.227-19.
  
 Gaussian, Inc.
 340 Quinnipiac St., Bldg. 40, Wallingford CT 06492
  
  
 ---------------------------------------------------------------
 Warning -- This program may not be used in any manner that
 competes with the business of Gaussian, Inc. or will provide
 assistance to any competitor of Gaussian, Inc.  The licensee
 of this program is prohibited from giving any competitor of
 Gaussian, Inc. access to this program.  By using this program,
 the user acknowledges that Gaussian, Inc. is engaged in the
 business of creating and licensing software in the field of
 computational chemistry and represents and warrants to the
 licensee that it is not a competitor of Gaussian, Inc. and that
 it will not use this program in any manner prohibited above.
 ---------------------------------------------------------------
  

 Cite this work as:
 Gaussian 16, Revision A.03,
 M. J. Frisch, G. W. Trucks, H. B. Schlegel, G. E. Scuseria, 
 M. A. Robb, J. R. Cheeseman, G. Scalmani, V. Barone, 
 G. A. Petersson, H. Nakatsuji, X. Li, M. Caricato, A. V. Marenich, 
 J. Bloino, B. G. Janesko, R. Gomperts, B. Mennucci, H. P. Hratchian, 
 J. V. Ortiz, A. F. Izmaylov, J. L. Sonnenberg, D. Williams-Young, 
 F. Ding, F. Lipparini, F. Egidi, J. Goings, B. Peng, A. Petrone, 
 T. Henderson, D. Ranasinghe, V. G. Zakrzewski, J. Gao, N. Rega, 
 G. Zheng, W. Liang, M. Hada, M. Ehara, K. Toyota, R. Fukuda, 
 J. Hasegawa, M. Ishida, T. Nakajima, Y. Honda, O. Kitao, H. Nakai, 
 T. Vreven, K. Throssell, J. A. Montgomery, Jr., J. E. Peralta, 
 F. Ogliaro, M. J. Bearpark, J. J. Heyd, E. N. Brothers, K. N. Kudin, 
 V. N. Staroverov, T. A. Keith, R. Kobayashi, J. Normand, 
 K. Raghavachari, A. P. Rendell, J. C. Burant, S. S. Iyengar, 
 J. Tomasi, M. Cossi, J. M. Millam, M. Klene, C. Adamo, R. Cammi, 
 J. W. Ochterski, R. L. Martin, K. Morokuma, O. Farkas, 
 J. B. Foresman, and D. J. Fox, Gaussian, Inc., Wallingford CT, 2016.
 
 ******************************************
 Gaussian 16:  ES64L-G16RevA.03 25-Dec-2016
                22-Jun-2021 
 ******************************************
 %nprocshared=4
 Will use up to    4 processors via shared memory.
 %mem=8GB
 ------------------
 # UwB97XD/Def2TZVP
 ------------------
 1/38=1,172=1/1;
 2/12=2,17=6,18=5,40=1/2;
 3/5=44,7=101,11=2,25=1,30=1,74=-58,116=2/1,2,3;
 4//1;
 5/5=2,38=5/2;
 6/7=2,8=2,9=2,10=2,28=1/1;
 99/5=1,9=1/99;
 ---------------
 something title
 ---------------
 Symbolic Z-matrix:
 Charge =  0 Multiplicity = 1
 N                    -0.4927   -0.1764   -1.29065 
 C                    -0.4464   -0.89249  -0.21894 
 N                    -1.54708  -1.1303    0.50382 
 N                    -2.63337  -1.31362   0.76296 
 O                     3.06433  -1.35343  -0.32562 
 N                     1.87396  -1.32596  -0.24059 
 C                     0.81438  -1.26034   0.42538 
 H                    -1.40216   0.20278  -1.55181 
 H                     0.74513  -1.56221   1.45779 
 
                          Input orientation:                          
 ---------------------------------------------------------------------
 Center     Atomic      Atomic             Coordinates (Angstroms)
 Number     Number       Type             X           Y           Z
 ---------------------------------------------------------------------
      1          7           0       -0.492703   -0.176399   -1.290654
      2          6           0       -0.446398   -0.892489   -0.218936
      3          7           0       -1.547077   -1.130300    0.503818
      4          7           0       -2.633374   -1.313615    0.762955
      5          8           0        3.064329   -1.353428   -0.325618
      6          7           0        1.873959   -1.325963   -0.240593
      7          6           0        0.814375   -1.260343    0.425376
      8          1           0       -1.402164    0.202784   -1.551814
      9          1           0        0.745128   -1.562213    1.457786
 ---------------------------------------------------------------------
                    Distance matrix (angstroms):
                    1          2          3          4          5
     1  N    0.000000
     2  C    1.289771   0.000000
     3  N    2.289489   1.338066   0.000000
     4  N    3.176955   2.433993   1.131723   0.000000
     5  O    3.869001   3.542464   4.690716   5.800896   0.000000
     6  N    2.832881   2.360599   3.506554   4.617717   1.193719
     7  C    2.414155   1.462875   2.366330   3.464646   2.373805
     8  H    1.019364   1.972226   2.454330   3.028779   4.886196
     9  H    3.317624   2.163252   2.520081   3.458159   2.933055
                    6          7          8          9
     6  N    0.000000
     7  C    1.253211   0.000000
     8  H    3.845692   3.311052   0.000000
     9  H    2.052941   1.077864   4.096800   0.000000
 Stoichiometry    C2H2N4O
 Framework group  C1[X(C2H2N4O)]
 Deg. of freedom    21
 Full point group                 C1      NOp   1
 Largest Abelian subgroup         C1      NOp   1
 Largest concise Abelian subgroup C1      NOp   1
                         Standard orientation:                         
 ---------------------------------------------------------------------
 Center     Atomic      Atomic             Coordinates (Angstroms)
 Number     Number       Type             X           Y           Z
 ---------------------------------------------------------------------
      1          7           0       -0.518077    1.545127    0.039799
      2          6           0       -0.561265    0.257006   -0.009050
      3          7           0       -1.726464   -0.399484    0.032836
      4          7           0       -2.823159   -0.635505   -0.116669
      5          8           0        2.957189   -0.153388   -0.042292
      6          7           0        1.766071   -0.123373   -0.115093
      7          6           0        0.629918   -0.575220    0.159733
      8          1           0       -1.409664    2.032762    0.119721
      9          1           0        0.451640   -1.603723    0.428413
 ---------------------------------------------------------------------
 Rotational constants (GHZ):           9.3018030           1.4341813           1.2483763
 Standard basis: def2TZVP (5D, 7F)
 There are   264 symmetry adapted cartesian basis functions of A   symmetry.
 There are   229 symmetry adapted basis functions of A   symmetry.
   229 basis functions,   373 primitive gaussians,   264 cartesian basis functions
    25 alpha electrons       25 beta electrons
       nuclear repulsion energy       256.7150061329 Hartrees.
 NAtoms=    9 NActive=    9 NUniq=    9 SFac= 1.00D+00 NAtFMM=   60 NAOKFM=F Big=F
 Integral buffers will be    131072 words long.
 Raffenetti 2 integral format.
 Two-electron integral symmetry is turned on.
 Nuclear repulsion after empirical dispersion term =      256.7124753879 Hartrees.
 One-electron integrals computed using PRISM.
   1 Symmetry operations used in ECPInt.
 ECPInt:  NShTT=    3655 NPrTT=   11788 LenC2=    3519 LenP2D=    9054.
 LDataN:  DoStor=T MaxTD1= 6 Len=  172
 NBasis=   229 RedAO= T EigKep=  1.77D-04  NBF=   229
 NBsUse=   229 1.00D-06 EigRej= -1.00D+00 NBFU=   229
 ExpMin= 9.52D-02 ExpMax= 2.70D+04 ExpMxC= 9.22D+02 IAcc=3 IRadAn=         5 AccDes= 0.00D+00
 Harris functional with IExCor= 4639 and IRadAn=       5 diagonalized for initial guess.
 HarFok:  IExCor= 4639 AccDes= 0.00D+00 IRadAn=         5 IDoV= 1 UseB2=F ITyADJ=14
 ICtDFT=  3500011 ScaDFX=  1.000000  1.000000  1.000000  1.000000
 FoFCou: FMM=F IPFlag=           0 FMFlag=      100000 FMFlg1=           0
         NFxFlg=           0 DoJE=T BraDBF=F KetDBF=T FulRan=T
         wScrn=  0.000000 ICntrl=       500 IOpCl=  0 I1Cent=   200000004 NGrid=           0
         NMat0=    1 NMatS0=      1 NMatT0=    0 NMatD0=    1 NMtDS0=    0 NMtDT0=    0
 Petite list used in FoFCou.
 Initial guess <Sx>= 0.0000 <Sy>= 0.0000 <Sz>= 0.0000 <S**2>= 0.0000 S= 0.0000
 Requested convergence on RMS density matrix=1.00D-08 within 128 cycles.
 Requested convergence on MAX density matrix=1.00D-06.
 Requested convergence on             energy=1.00D-06.
 No special actions if energy rises.
 Integral accuracy reduced to 1.0D-05 until final iterations.
 Initial convergence to 1.0D-05 achieved.  Increase integral accuracy.
 SCF Done:  E(UwB97XD) =  -371.397689480     A.U. after   26 cycles
            NFock= 26  Conv=0.52D-08     -V/T= 2.0036
 <Sx>= 0.0000 <Sy>= 0.0000 <Sz>= 0.0000 <S**2>=-0.0000 S=-0.0000
 <L.S>=  0.00000000000    
 Annihilation of the first spin contaminant:
 S**2 before annihilation    -0.0000,   after     0.0000

 **********************************************************************

            Population analysis using the SCF density.

 **********************************************************************

 Orbital symmetries:
 Alpha Orbitals:
       Occupied  (A) (A) (A) (A) (A) (A) (A) (A) (A) (A) (A) (A)
                 (A) (A) (A) (A) (A) (A) (A) (A) (A) (A) (A) (A)
                 (A)
       Virtual   (A) (A) (A) (A) (A) (A) (A) (A) (A) (A) (A) (A)
                 (A) (A) (A) (A) (A) (A) (A) (A) (A) (A) (A) (A)
                 (A) (A) (A) (A) (A) (A) (A) (A) (A) (A) (A) (A)
                 (A) (A) (A) (A) (A) (A) (A) (A) (A) (A) (A) (A)
                 (A) (A) (A) (A) (A) (A) (A) (A) (A) (A) (A) (A)
                 (A) (A) (A) (A) (A) (A) (A) (A) (A) (A) (A) (A)
                 (A) (A) (A) (A) (A) (A) (A) (A) (A) (A) (A) (A)
                 (A) (A) (A) (A) (A) (A) (A) (A) (A) (A) (A) (A)
                 (A) (A) (A) (A) (A) (A) (A) (A) (A) (A) (A) (A)
                 (A) (A) (A) (A) (A) (A) (A) (A) (A) (A) (A) (A)
                 (A) (A) (A) (A) (A) (A) (A) (A) (A) (A) (A) (A)
                 (A) (A) (A) (A) (A) (A) (A) (A) (A) (A) (A) (A)
                 (A) (A) (A) (A) (A) (A) (A) (A) (A) (A) (A) (A)
                 (A) (A) (A) (A) (A) (A) (A) (A) (A) (A) (A) (A)
                 (A) (A) (A) (A) (A) (A) (A) (A) (A) (A) (A) (A)
                 (A) (A) (A) (A) (A) (A) (A) (A) (A) (A) (A) (A)
                 (A) (A) (A) (A) (A) (A) (A) (A) (A) (A) (A) (A)
 Beta  Orbitals:
       Occupied  (A) (A) (A) (A) (A) (A) (A) (A) (A) (A) (A) (A)
                 (A) (A) (A) (A) (A) (A) (A) (A) (A) (A) (A) (A)
                 (A)
       Virtual   (A) (A) (A) (A) (A) (A) (A) (A) (A) (A) (A) (A)
                 (A) (A) (A) (A) (A) (A) (A) (A) (A) (A) (A) (A)
                 (A) (A) (A) (A) (A) (A) (A) (A) (A) (A) (A) (A)
                 (A) (A) (A) (A) (A) (A) (A) (A) (A) (A) (A) (A)
                 (A) (A) (A) (A) (A) (A) (A) (A) (A) (A) (A) (A)
                 (A) (A) (A) (A) (A) (A) (A) (A) (A) (A) (A) (A)
                 (A) (A) (A) (A) (A) (A) (A) (A) (A) (A) (A) (A)
                 (A) (A) (A) (A) (A) (A) (A) (A) (A) (A) (A) (A)
                 (A) (A) (A) (A) (A) (A) (A) (A) (A) (A) (A) (A)
                 (A) (A) (A) (A) (A) (A) (A) (A) (A) (A) (A) (A)
                 (A) (A) (A) (A) (A) (A) (A) (A) (A) (A) (A) (A)
                 (A) (A) (A) (A) (A) (A) (A) (A) (A) (A) (A) (A)
                 (A) (A) (A) (A) (A) (A) (A) (A) (A) (A) (A) (A)
                 (A) (A) (A) (A) (A) (A) (A) (A) (A) (A) (A) (A)
                 (A) (A) (A) (A) (A) (A) (A) (A) (A) (A) (A) (A)
                 (A) (A) (A) (A) (A) (A) (A) (A) (A) (A) (A) (A)
                 (A) (A) (A) (A) (A) (A) (A) (A) (A) (A) (A) (A)
 The electronic state is 1-A.
 Alpha  occ. eigenvalues --  -19.30551 -14.62944 -14.58897 -14.55790 -14.43756
 Alpha  occ. eigenvalues --  -10.41664 -10.35558  -1.28215  -1.26775  -1.07160
 Alpha  occ. eigenvalues --   -0.98304  -0.92422  -0.74184  -0.66919  -0.64016
 Alpha  occ. eigenvalues --   -0.63478  -0.61911  -0.60004  -0.57547  -0.57256
 Alpha  occ. eigenvalues --   -0.49760  -0.45648  -0.38998  -0.34191  -0.24348
 Alpha virt. eigenvalues --   -0.08653  -0.04019   0.03248   0.10329   0.14149
 Alpha virt. eigenvalues --    0.15117   0.18163   0.18819   0.24471   0.27079
 Alpha virt. eigenvalues --    0.28302   0.30135   0.31829   0.32565   0.34178
 Alpha virt. eigenvalues --    0.35725   0.38446   0.40327   0.41548   0.44473
 Alpha virt. eigenvalues --    0.45470   0.46522   0.48246   0.48958   0.51062
 Alpha virt. eigenvalues --    0.53444   0.54461   0.55000   0.55397   0.57141
 Alpha virt. eigenvalues --    0.58043   0.59969   0.61427   0.65155   0.65812
 Alpha virt. eigenvalues --    0.67908   0.70463   0.74009   0.78691   0.79644
 Alpha virt. eigenvalues --    0.81081   0.83332   0.86292   0.90565   0.92361
 Alpha virt. eigenvalues --    0.98113   0.99953   1.01935   1.04882   1.11126
 Alpha virt. eigenvalues --    1.11212   1.15160   1.19370   1.25298   1.28012
 Alpha virt. eigenvalues --    1.30433   1.32517   1.34208   1.38242   1.43484
 Alpha virt. eigenvalues --    1.44031   1.47255   1.50880   1.51392   1.53539
 Alpha virt. eigenvalues --    1.55780   1.58428   1.61600   1.65824   1.66227
 Alpha virt. eigenvalues --    1.69536   1.71394   1.75434   1.78630   1.82495
 Alpha virt. eigenvalues --    1.84487   1.88990   1.90279   1.92168   1.97265
 Alpha virt. eigenvalues --    2.02175   2.05352   2.07979   2.12201   2.13379
 Alpha virt. eigenvalues --    2.14829   2.19015   2.22962   2.25035   2.26097
 Alpha virt. eigenvalues --    2.28975   2.34537   2.37558   2.39537   2.43920
 Alpha virt. eigenvalues --    2.47647   2.48744   2.56508   2.61714   2.64279
 Alpha virt. eigenvalues --    2.67521   2.71075   2.75484   2.82585   2.85463
 Alpha virt. eigenvalues --    2.89548   2.93223   2.95234   2.98125   2.99372
 Alpha virt. eigenvalues --    3.02815   3.08849   3.12138   3.13992   3.16567
 Alpha virt. eigenvalues --    3.19102   3.22511   3.25222   3.29354   3.37408
 Alpha virt. eigenvalues --    3.38381   3.43010   3.48579   3.50498   3.56144
 Alpha virt. eigenvalues --    3.59324   3.62854   3.65712   3.71069   3.73466
 Alpha virt. eigenvalues --    3.74852   3.78692   3.79220   3.83412   3.86789
 Alpha virt. eigenvalues --    3.90240   3.97227   4.03489   4.04001   4.08410
 Alpha virt. eigenvalues --    4.13458   4.20240   4.22642   4.29180   4.30890
 Alpha virt. eigenvalues --    4.38298   4.38757   4.42748   4.44038   4.48930
 Alpha virt. eigenvalues --    4.51574   4.56458   4.61435   4.63522   4.64684
 Alpha virt. eigenvalues --    4.70446   4.72264   4.75965   4.77162   4.78786
 Alpha virt. eigenvalues --    4.81271   4.84332   4.91284   4.93541   4.98220
 Alpha virt. eigenvalues --    5.04689   5.06386   5.08487   5.11592   5.13187
 Alpha virt. eigenvalues --    5.17272   5.21431   5.23143   5.23943   5.28100
 Alpha virt. eigenvalues --    5.39555   5.40371   5.46029   5.53870   5.60574
 Alpha virt. eigenvalues --    5.75465   5.78837   5.80320   5.88080   6.04266
 Alpha virt. eigenvalues --    6.34857   6.35604   6.42007   6.56605   6.60546
 Alpha virt. eigenvalues --    6.65405   6.73898   6.91736   7.05302   7.16384
 Alpha virt. eigenvalues --    7.37639   7.43884  22.92127  23.31730  31.74850
 Alpha virt. eigenvalues --   32.08246  32.63147  32.98457  44.20237
  Beta  occ. eigenvalues --  -19.30551 -14.62944 -14.58897 -14.55790 -14.43756
  Beta  occ. eigenvalues --  -10.41664 -10.35558  -1.28215  -1.26775  -1.07160
  Beta  occ. eigenvalues --   -0.98304  -0.92422  -0.74184  -0.66919  -0.64016
  Beta  occ. eigenvalues --   -0.63478  -0.61911  -0.60004  -0.57547  -0.57256
  Beta  occ. eigenvalues --   -0.49760  -0.45648  -0.38998  -0.34191  -0.24348
  Beta virt. eigenvalues --   -0.08653  -0.04019   0.03248   0.10329   0.14149
  Beta virt. eigenvalues --    0.15117   0.18163   0.18819   0.24471   0.27079
  Beta virt. eigenvalues --    0.28302   0.30135   0.31829   0.32565   0.34178
  Beta virt. eigenvalues --    0.35725   0.38446   0.40327   0.41548   0.44473
  Beta virt. eigenvalues --    0.45470   0.46522   0.48246   0.48958   0.51062
  Beta virt. eigenvalues --    0.53444   0.54461   0.55000   0.55397   0.57141
  Beta virt. eigenvalues --    0.58043   0.59969   0.61427   0.65155   0.65812
  Beta virt. eigenvalues --    0.67908   0.70463   0.74009   0.78691   0.79644
  Beta virt. eigenvalues --    0.81081   0.83332   0.86292   0.90565   0.92361
  Beta virt. eigenvalues --    0.98113   0.99953   1.01935   1.04882   1.11126
  Beta virt. eigenvalues --    1.11212   1.15160   1.19370   1.25298   1.28012
  Beta virt. eigenvalues --    1.30433   1.32517   1.34208   1.38242   1.43484
  Beta virt. eigenvalues --    1.44031   1.47255   1.50880   1.51392   1.53539
  Beta virt. eigenvalues --    1.55780   1.58428   1.61600   1.65824   1.66227
  Beta virt. eigenvalues --    1.69536   1.71394   1.75434   1.78630   1.82495
  Beta virt. eigenvalues --    1.84487   1.88990   1.90279   1.92168   1.97265
  Beta virt. eigenvalues --    2.02175   2.05352   2.07979   2.12201   2.13379
  Beta virt. eigenvalues --    2.14829   2.19015   2.22962   2.25035   2.26097
  Beta virt. eigenvalues --    2.28975   2.34537   2.37558   2.39537   2.43920
  Beta virt. eigenvalues --    2.47647   2.48744   2.56508   2.61714   2.64279
  Beta virt. eigenvalues --    2.67521   2.71075   2.75484   2.82585   2.85463
  Beta virt. eigenvalues --    2.89548   2.93223   2.95234   2.98125   2.99372
  Beta virt. eigenvalues --    3.02815   3.08849   3.12138   3.13992   3.16567
  Beta virt. eigenvalues --    3.19102   3.22511   3.25222   3.29354   3.37408
  Beta virt. eigenvalues --    3.38381   3.43010   3.48579   3.50498   3.56144
  Beta virt. eigenvalues --    3.59324   3.62854   3.65712   3.71069   3.73466
  Beta virt. eigenvalues --    3.74852   3.78692   3.79220   3.83412   3.86789
  Beta virt. eigenvalues --    3.90240   3.97227   4.03489   4.04001   4.08410
  Beta virt. eigenvalues --    4.13458   4.20240   4.22642   4.29180   4.30890
  Beta virt. eigenvalues --    4.38298   4.38757   4.42748   4.44038   4.48930
  Beta virt. eigenvalues --    4.51574   4.56458   4.61435   4.63522   4.64684
  Beta virt. eigenvalues --    4.70446   4.72264   4.75965   4.77162   4.78786
  Beta virt. eigenvalues --    4.81271   4.84332   4.91284   4.93541   4.98220
  Beta virt. eigenvalues --    5.04689   5.06386   5.08487   5.11592   5.13187
  Beta virt. eigenvalues --    5.17272   5.21431   5.23143   5.23943   5.28100
  Beta virt. eigenvalues --    5.39555   5.40371   5.46029   5.53870   5.60574
  Beta virt. eigenvalues --    5.75465   5.78837   5.80320   5.88080   6.04266
  Beta virt. eigenvalues --    6.34857   6.35604   6.42007   6.56605   6.60546
  Beta virt. eigenvalues --    6.65405   6.73898   6.91736   7.05302   7.16384
  Beta virt. eigenvalues --    7.37639   7.43884  22.92127  23.31730  31.74850
  Beta virt. eigenvalues --   32.08246  32.63147  32.98457  44.20237
          Condensed to atoms (all electrons):
               1          2          3          4          5          6
     1  N    6.549367   0.683398  -0.087379  -0.001529  -0.000903  -0.000402
     2  C    0.683398   4.835634   0.310450  -0.057193   0.005422  -0.087993
     3  N   -0.087379   0.310450   6.294796   0.397331  -0.000173   0.000927
     4  N   -0.001529  -0.057193   0.397331   6.720464  -0.000004   0.000707
     5  O   -0.000903   0.005422  -0.000173  -0.000004   8.086120   0.256130
     6  N   -0.000402  -0.087993   0.000927   0.000707   0.256130   6.065767
     7  C   -0.096258   0.266365  -0.043657   0.006641  -0.065761   0.589376
     8  H    0.347431  -0.060062  -0.010983   0.000999   0.000021   0.000019
     9  H   -0.002978  -0.143573   0.024028   0.004575   0.003229  -0.027418
               7          8          9
     1  N   -0.096258   0.347431  -0.002978
     2  C    0.266365  -0.060062  -0.143573
     3  N   -0.043657  -0.010983   0.024028
     4  N    0.006641   0.000999   0.004575
     5  O   -0.065761   0.000021   0.003229
     6  N    0.589376   0.000019  -0.027418
     7  C    5.061038   0.014573   0.432707
     8  H    0.014573   0.487411  -0.000372
     9  H    0.432707  -0.000372   0.584019
          Atomic-Atomic Spin Densities.
               1          2          3          4          5          6
     1  N   -0.000000   0.000000   0.000000  -0.000000   0.000000  -0.000000
     2  C    0.000000  -0.000000  -0.000000   0.000000   0.000000  -0.000000
     3  N    0.000000  -0.000000  -0.000000   0.000000  -0.000000   0.000000
     4  N   -0.000000   0.000000   0.000000  -0.000000   0.000000  -0.000000
     5  O    0.000000   0.000000  -0.000000   0.000000   0.000000  -0.000000
     6  N   -0.000000  -0.000000   0.000000  -0.000000  -0.000000   0.000000
     7  C    0.000000   0.000000  -0.000000  -0.000000  -0.000000   0.000000
     8  H   -0.000000  -0.000000  -0.000000  -0.000000   0.000000  -0.000000
     9  H    0.000000  -0.000000   0.000000   0.000000   0.000000  -0.000000
               7          8          9
     1  N    0.000000  -0.000000   0.000000
     2  C    0.000000  -0.000000  -0.000000
     3  N   -0.000000  -0.000000   0.000000
     4  N   -0.000000  -0.000000   0.000000
     5  O   -0.000000   0.000000   0.000000
     6  N    0.000000  -0.000000  -0.000000
     7  C    0.000000  -0.000000  -0.000000
     8  H   -0.000000   0.000000  -0.000000
     9  H   -0.000000  -0.000000   0.000000
 Mulliken charges and spin densities:
               1          2
     1  N   -0.390748  -0.000000
     2  C    0.247554  -0.000000
     3  N    0.114660  -0.000000
     4  N   -0.071991  -0.000000
     5  O   -0.284081   0.000000
     6  N    0.202886   0.000000
     7  C   -0.165023   0.000000
     8  H    0.220962   0.000000
     9  H    0.125781   0.000000
 Sum of Mulliken charges =  -0.00000  -0.00000
 Mulliken charges and spin densities with hydrogens summed into heavy atoms:
               1          2
     1  N   -0.169786  -0.000000
     2  C    0.247554  -0.000000
     3  N    0.114660  -0.000000
     4  N   -0.071991  -0.000000
     5  O   -0.284081   0.000000
     6  N    0.202886   0.000000
     7  C   -0.039242   0.000000
 Electronic spatial extent (au):  <R**2>=            831.5430
 Charge=             -0.0000 electrons
 Dipole moment (field-independent basis, Debye):
    X=             -4.0868    Y=             -1.7704    Z=              0.4899  Tot=              4.4806
 Quadrupole moment (field-independent basis, Debye-Ang):
   XX=            -44.9402   YY=            -38.0429   ZZ=            -39.2914
   XY=             -3.3792   XZ=              0.0356   YZ=              0.1419
 Traceless Quadrupole moment (field-independent basis, Debye-Ang):
   XX=             -4.1820   YY=              2.7153   ZZ=              1.4668
   XY=             -3.3792   XZ=              0.0356   YZ=              0.1419
 Octapole moment (field-independent basis, Debye-Ang**2):
  XXX=            -17.6310  YYY=             -5.1265  ZZZ=             -0.4350  XYY=             -3.8481
  XXY=              8.1158  XXZ=              1.6275  XZZ=              1.4855  YZZ=             -1.0074
  YYZ=              1.0787  XYZ=              0.3241
 Hexadecapole moment (field-independent basis, Debye-Ang**3):
 XXXX=           -919.4854 YYYY=           -169.2194 ZZZZ=            -39.9633 XXXY=            -17.5216
 XXXZ=             -2.4477 YYYX=            -16.0352 YYYZ=              0.3967 ZZZX=             -0.7725
 ZZZY=              0.8340 XXYY=           -150.7850 XXZZ=           -140.9508 YYZZ=            -37.7027
 XXYZ=              2.0968 YYXZ=             -1.1099 ZZXY=             -0.4355
 N-N= 2.567124753879D+02 E-N=-1.382049397086D+03  KE= 3.700745457379D+02
                          Isotropic Fermi Contact Couplings
        Atom                 a.u.       MegaHertz       Gauss      10(-4) cm-1
     1  N(14)             -0.00000      -0.00000      -0.00000      -0.00000
     2  C(13)              0.00000       0.00000       0.00000       0.00000
     3  N(14)             -0.00000      -0.00000      -0.00000      -0.00000
     4  N(14)             -0.00000      -0.00000      -0.00000      -0.00000
     5  O(17)              0.00000      -0.00000      -0.00000      -0.00000
     6  N(14)              0.00000       0.00000       0.00000       0.00000
     7  C(13)              0.00000       0.00000       0.00000       0.00000
     8  H(1)               0.00000       0.00000       0.00000       0.00000
     9  H(1)               0.00000       0.00000       0.00000       0.00000
 --------------------------------------------------------
       Center         ----  Spin Dipole Couplings  ----
                      3XX-RR        3YY-RR        3ZZ-RR
 --------------------------------------------------------
     1   Atom        0.000000      0.000000     -0.000000
     2   Atom        0.000000      0.000000     -0.000000
     3   Atom        0.000000      0.000000     -0.000000
     4   Atom        0.000000      0.000000     -0.000000
     5   Atom       -0.000000      0.000000     -0.000000
     6   Atom       -0.000000      0.000000     -0.000000
     7   Atom        0.000000     -0.000000      0.000000
     8   Atom       -0.000000      0.000000      0.000000
     9   Atom       -0.000000      0.000000     -0.000000
 --------------------------------------------------------
                        XY            XZ            YZ
 --------------------------------------------------------
     1   Atom       -0.000000     -0.000000      0.000000
     2   Atom       -0.000000     -0.000000     -0.000000
     3   Atom       -0.000000     -0.000000     -0.000000
     4   Atom       -0.000000      0.000000      0.000000
     5   Atom       -0.000000      0.000000     -0.000000
     6   Atom       -0.000000      0.000000     -0.000000
     7   Atom        0.000000     -0.000000     -0.000000
     8   Atom        0.000000      0.000000     -0.000000
     9   Atom        0.000000     -0.000000      0.000000
 --------------------------------------------------------


 ---------------------------------------------------------------------------------
              Anisotropic Spin Dipole Couplings in Principal Axis System
 ---------------------------------------------------------------------------------

       Atom             a.u.   MegaHertz   Gauss  10(-4) cm-1        Axes

              Baa    -0.0000    -0.000    -0.000    -0.000  0.0585 -0.0299  0.9978
     1 N(14)  Bbb     0.0000     0.000     0.000     0.000  0.5106  0.8598 -0.0041
              Bcc     0.0000     0.000     0.000     0.000  0.8578 -0.5097 -0.0656
 
              Baa    -0.0000    -0.000    -0.000    -0.000  0.3840  0.4022  0.8311
     2 C(13)  Bbb     0.0000     0.000     0.000     0.000  0.2699  0.8119 -0.5177
              Bcc     0.0000     0.000     0.000     0.000  0.8830 -0.4231 -0.2032
 
              Baa    -0.0000    -0.000    -0.000    -0.000  0.0008  0.0138  0.9999
     3 N(14)  Bbb     0.0000     0.000     0.000     0.000  0.9606  0.2778 -0.0046
              Bcc     0.0000     0.000     0.000     0.000 -0.2778  0.9606 -0.0130
 
              Baa    -0.0000    -0.000    -0.000    -0.000 -0.0845 -0.0509  0.9951
     4 N(14)  Bbb     0.0000     0.000     0.000     0.000 -0.0162  0.9986  0.0497
              Bcc     0.0000     0.000     0.000     0.000  0.9963  0.0119  0.0852
 
              Baa    -0.0000     0.000     0.000     0.000 -0.0833  0.2135  0.9734
     5 O(17)  Bbb    -0.0000     0.000     0.000     0.000  0.9884  0.1425  0.0533
              Bcc     0.0000    -0.000    -0.000    -0.000 -0.1274  0.9665 -0.2229
 
              Baa    -0.0000    -0.000    -0.000    -0.000  0.1188  0.3646  0.9235
     6 N(14)  Bbb    -0.0000    -0.000    -0.000    -0.000  0.9826  0.0902 -0.1621
              Bcc     0.0000     0.000     0.000     0.000 -0.1424  0.9268 -0.3476
 
              Baa    -0.0000    -0.000    -0.000    -0.000 -0.4500  0.8578 -0.2482
     7 C(13)  Bbb    -0.0000    -0.000    -0.000    -0.000  0.5582  0.4871  0.6717
              Bcc     0.0000     0.000     0.000     0.000 -0.6971 -0.1638  0.6980
 
              Baa    -0.0000    -0.000    -0.000    -0.000  0.8681 -0.4937 -0.0512
     8 H(1)   Bbb     0.0000     0.000     0.000     0.000  0.0614  0.0044  0.9981
              Bcc     0.0000     0.000     0.000     0.000  0.4926  0.8696 -0.0341
 
              Baa    -0.0000    -0.000    -0.000    -0.000  0.7978 -0.3970  0.4537
     9 H(1)   Bbb    -0.0000    -0.000    -0.000    -0.000 -0.3336  0.3361  0.8807
              Bcc     0.0000     0.000     0.000     0.000  0.5021  0.8541 -0.1357
 

 ---------------------------------------------------------------------------------

 1\1\GINC-NODE305\SP\UwB97XD\def2TZVP\C2H2N4O1\MHARRIS\22-Jun-2021\0\\#
  UwB97XD/Def2TZVP\\something title\\0,1\N,0,-0.492703,-0.176399,-1.290
 654\C,0,-0.446398,-0.892489,-0.218936\N,0,-1.547077,-1.1303,0.503818\N
 ,0,-2.633374,-1.313615,0.762955\O,0,3.064329,-1.353428,-0.325618\N,0,1
 .873959,-1.325963,-0.240593\C,0,0.814375,-1.260343,0.425376\H,0,-1.402
 164,0.202784,-1.551814\H,0,0.745128,-1.562213,1.457786\\Version=ES64L-
 G16RevA.03\State=1-A\HF=-371.3976895\S2=0.\S2-1=0.\S2A=0.\RMSD=5.168e-
 09\Dipole=-1.5183654,-0.1035974,0.8895607\Quadrupole=-2.6527302,1.5854
 095,1.0673207,-1.0771501,2.658902,-0.4637061\PG=C01 [X(C2H2N4O1)]\\@


 THE FIRST MORNING OF CREATION WROTE WHAT THE LAST DAWN OF
 RECKONING SHALL READ. -- OMAR KHAYYAM
 Job cpu time:       0 days  0 hours 23 minutes  2.0 seconds.
 Elapsed time:       0 days  0 hours  5 minutes 46.7 seconds.
 File lengths (MBytes):  RWF=     54 Int=      0 D2E=      0 Chk=      5 Scr=      1
 Normal termination of Gaussian 16 at Tue Jun 22 16:37:46 2021.
