 Entering Gaussian System, Link 0=/software/kemi/g16/avx2/g16/g16
 Initial command:
 /software/kemi/g16/avx2/g16/l1.exe "/scratch/23935644/Gau-14373.inp" -scrdir="/scratch/23935644/"
 Entering Link 1 = /software/kemi/g16/avx2/g16/l1.exe PID=     14374.
  
 Copyright (c) 1988,1990,1992,1993,1995,1998,2003,2009,2016,
            Gaussian, Inc.  All Rights Reserved.
  
 This is part of the Gaussian(R) 16 program.  It is based on
 the Gaussian(R) 09 system (copyright 2009, Gaussian, Inc.),
 the Gaussian(R) 03 system (copyright 2003, Gaussian, Inc.),
 the Gaussian(R) 98 system (copyright 1998, Gaussian, Inc.),
 the Gaussian(R) 94 system (copyright 1995, Gaussian, Inc.),
 the Gaussian 92(TM) system (copyright 1992, Gaussian, Inc.),
 the Gaussian 90(TM) system (copyright 1990, Gaussian, Inc.),
 the Gaussian 88(TM) system (copyright 1988, Gaussian, Inc.),
 the Gaussian 86(TM) system (copyright 1986, Carnegie Mellon
 University), and the Gaussian 82(TM) system (copyright 1983,
 Carnegie Mellon University). Gaussian is a federally registered
 trademark of Gaussian, Inc.
  
 This software contains proprietary and confidential information,
 including trade secrets, belonging to Gaussian, Inc.
  
 This software is provided under written license and may be
 used, copied, transmitted, or stored only in accord with that
 written license.
  
 The following legend is applicable only to US Government
 contracts under FAR:
  
                    RESTRICTED RIGHTS LEGEND
  
 Use, reproduction and disclosure by the US Government is
 subject to restrictions as set forth in subparagraphs (a)
 and (c) of the Commercial Computer Software - Restricted
 Rights clause in FAR 52.227-19.
  
 Gaussian, Inc.
 340 Quinnipiac St., Bldg. 40, Wallingford CT 06492
  
  
 ---------------------------------------------------------------
 Warning -- This program may not be used in any manner that
 competes with the business of Gaussian, Inc. or will provide
 assistance to any competitor of Gaussian, Inc.  The licensee
 of this program is prohibited from giving any competitor of
 Gaussian, Inc. access to this program.  By using this program,
 the user acknowledges that Gaussian, Inc. is engaged in the
 business of creating and licensing software in the field of
 computational chemistry and represents and warrants to the
 licensee that it is not a competitor of Gaussian, Inc. and that
 it will not use this program in any manner prohibited above.
 ---------------------------------------------------------------
  

 Cite this work as:
 Gaussian 16, Revision A.03,
 M. J. Frisch, G. W. Trucks, H. B. Schlegel, G. E. Scuseria, 
 M. A. Robb, J. R. Cheeseman, G. Scalmani, V. Barone, 
 G. A. Petersson, H. Nakatsuji, X. Li, M. Caricato, A. V. Marenich, 
 J. Bloino, B. G. Janesko, R. Gomperts, B. Mennucci, H. P. Hratchian, 
 J. V. Ortiz, A. F. Izmaylov, J. L. Sonnenberg, D. Williams-Young, 
 F. Ding, F. Lipparini, F. Egidi, J. Goings, B. Peng, A. Petrone, 
 T. Henderson, D. Ranasinghe, V. G. Zakrzewski, J. Gao, N. Rega, 
 G. Zheng, W. Liang, M. Hada, M. Ehara, K. Toyota, R. Fukuda, 
 J. Hasegawa, M. Ishida, T. Nakajima, Y. Honda, O. Kitao, H. Nakai, 
 T. Vreven, K. Throssell, J. A. Montgomery, Jr., J. E. Peralta, 
 F. Ogliaro, M. J. Bearpark, J. J. Heyd, E. N. Brothers, K. N. Kudin, 
 V. N. Staroverov, T. A. Keith, R. Kobayashi, J. Normand, 
 K. Raghavachari, A. P. Rendell, J. C. Burant, S. S. Iyengar, 
 J. Tomasi, M. Cossi, J. M. Millam, M. Klene, C. Adamo, R. Cammi, 
 J. W. Ochterski, R. L. Martin, K. Morokuma, O. Farkas, 
 J. B. Foresman, and D. J. Fox, Gaussian, Inc., Wallingford CT, 2016.
 
 ******************************************
 Gaussian 16:  ES64L-G16RevA.03 25-Dec-2016
                22-Jun-2021 
 ******************************************
 %nprocshared=4
 Will use up to    4 processors via shared memory.
 %mem=8GB
 ------------------
 # UwB97XD/Def2TZVP
 ------------------
 1/38=1,172=1/1;
 2/12=2,17=6,18=5,40=1/2;
 3/5=44,7=101,11=2,25=1,30=1,74=-58,116=2/1,2,3;
 4//1;
 5/5=2,38=5/2;
 6/7=2,8=2,9=2,10=2,28=1/1;
 99/5=1,9=1/99;
 ---------------
 something title
 ---------------
 Symbolic Z-matrix:
 Charge =  0 Multiplicity = 1
 N                    -0.50219  -0.1658   -1.28916 
 C                    -0.44559  -0.87336  -0.21287 
 N                    -1.53898  -1.10374   0.52773 
 N                    -2.62904  -1.37442   0.72692 
 O                     3.06778  -1.38736  -0.30337 
 N                     1.86208  -1.35372  -0.272 
 C                     0.81836  -1.23322   0.42578 
 H                    -1.41267   0.21733  -1.54246 
 H                     0.75632  -1.53768   1.46175 
 
                          Input orientation:                          
 ---------------------------------------------------------------------
 Center     Atomic      Atomic             Coordinates (Angstroms)
 Number     Number       Type             X           Y           Z
 ---------------------------------------------------------------------
      1          7           0       -0.502186   -0.165802   -1.289157
      2          6           0       -0.445587   -0.873358   -0.212866
      3          7           0       -1.538981   -1.103745    0.527732
      4          7           0       -2.629044   -1.374417    0.726918
      5          8           0        3.067780   -1.387355   -0.303374
      6          7           0        1.862078   -1.353720   -0.272001
      7          6           0        0.818357   -1.233217    0.425777
      8          1           0       -1.412666    0.217333   -1.542462
      9          1           0        0.756324   -1.537684    1.461753
 ---------------------------------------------------------------------
                    Distance matrix (angstroms):
                    1          2          3          4          5
     1  N    0.000000
     2  C    1.289279   0.000000
     3  N    2.292546   1.340550   0.000000
     4  N    3.169990   2.429349   1.140691   0.000000
     5  O    3.899823   3.551920   4.689714   5.789255   0.000000
     6  N    2.834696   2.357872   3.502751   4.600918   1.206579
     7  C    2.413339   1.461136   2.363091   3.463408   2.369667
     8  H    1.019769   1.972986   2.459046   3.027099   4.917800
     9  H    3.321658   2.165703   2.515775   3.468048   2.912233
                    6          7          8          9
     6  N    0.000000
     7  C    1.261257   0.000000
     8  H    3.847886   3.309913   0.000000
     9  H    2.064567   1.081570   4.099989   0.000000
 Stoichiometry    C2H2N4O
 Framework group  C1[X(C2H2N4O)]
 Deg. of freedom    21
 Full point group                 C1      NOp   1
 Largest Abelian subgroup         C1      NOp   1
 Largest concise Abelian subgroup C1      NOp   1
                         Standard orientation:                         
 ---------------------------------------------------------------------
 Center     Atomic      Atomic             Coordinates (Angstroms)
 Number     Number       Type             X           Y           Z
 ---------------------------------------------------------------------
      1          7           0       -0.537246    1.549929    0.037312
      2          6           0       -0.564273    0.261152    0.013552
      3          7           0       -1.721250   -0.412758    0.079321
      4          7           0       -2.807565   -0.652401   -0.173000
      5          8           0        2.960481   -0.172470   -0.051383
      6          7           0        1.760042   -0.100276   -0.149205
      7          6           0        0.634765   -0.553772    0.195557
      8          1           0       -1.433695    2.029091    0.119253
      9          1           0        0.469027   -1.585072    0.476173
 ---------------------------------------------------------------------
 Rotational constants (GHZ):           9.1362004           1.4356036           1.2503308
 Standard basis: def2TZVP (5D, 7F)
 There are   264 symmetry adapted cartesian basis functions of A   symmetry.
 There are   229 symmetry adapted basis functions of A   symmetry.
   229 basis functions,   373 primitive gaussians,   264 cartesian basis functions
    25 alpha electrons       25 beta electrons
       nuclear repulsion energy       256.1476062008 Hartrees.
 NAtoms=    9 NActive=    9 NUniq=    9 SFac= 1.00D+00 NAtFMM=   60 NAOKFM=F Big=F
 Integral buffers will be    131072 words long.
 Raffenetti 2 integral format.
 Two-electron integral symmetry is turned on.
 Nuclear repulsion after empirical dispersion term =      256.1450774889 Hartrees.
 One-electron integrals computed using PRISM.
   1 Symmetry operations used in ECPInt.
 ECPInt:  NShTT=    3655 NPrTT=   11788 LenC2=    3519 LenP2D=    9052.
 LDataN:  DoStor=T MaxTD1= 6 Len=  172
 NBasis=   229 RedAO= T EigKep=  1.90D-04  NBF=   229
 NBsUse=   229 1.00D-06 EigRej= -1.00D+00 NBFU=   229
 ExpMin= 9.52D-02 ExpMax= 2.70D+04 ExpMxC= 9.22D+02 IAcc=3 IRadAn=         5 AccDes= 0.00D+00
 Harris functional with IExCor= 4639 and IRadAn=       5 diagonalized for initial guess.
 HarFok:  IExCor= 4639 AccDes= 0.00D+00 IRadAn=         5 IDoV= 1 UseB2=F ITyADJ=14
 ICtDFT=  3500011 ScaDFX=  1.000000  1.000000  1.000000  1.000000
 FoFCou: FMM=F IPFlag=           0 FMFlag=      100000 FMFlg1=           0
         NFxFlg=           0 DoJE=T BraDBF=F KetDBF=T FulRan=T
         wScrn=  0.000000 ICntrl=       500 IOpCl=  0 I1Cent=   200000004 NGrid=           0
         NMat0=    1 NMatS0=      1 NMatT0=    0 NMatD0=    1 NMtDS0=    0 NMtDT0=    0
 Petite list used in FoFCou.
 Initial guess <Sx>= 0.0000 <Sy>= 0.0000 <Sz>= 0.0000 <S**2>=-0.0000 S=-0.0000
 Requested convergence on RMS density matrix=1.00D-08 within 128 cycles.
 Requested convergence on MAX density matrix=1.00D-06.
 Requested convergence on             energy=1.00D-06.
 No special actions if energy rises.
 Integral accuracy reduced to 1.0D-05 until final iterations.
 EnCoef did     5 forward-backward iterations
 Initial convergence to 1.0D-05 achieved.  Increase integral accuracy.
 SCF Done:  E(UwB97XD) =  -371.400897352     A.U. after   27 cycles
            NFock= 27  Conv=0.70D-08     -V/T= 2.0038
 <Sx>= 0.0000 <Sy>= 0.0000 <Sz>= 0.0000 <S**2>=-0.0000 S=-0.0000
 <L.S>=  0.00000000000    
 Annihilation of the first spin contaminant:
 S**2 before annihilation    -0.0000,   after     0.0000

 **********************************************************************

            Population analysis using the SCF density.

 **********************************************************************

 Orbital symmetries:
 Alpha Orbitals:
       Occupied  (A) (A) (A) (A) (A) (A) (A) (A) (A) (A) (A) (A)
                 (A) (A) (A) (A) (A) (A) (A) (A) (A) (A) (A) (A)
                 (A)
       Virtual   (A) (A) (A) (A) (A) (A) (A) (A) (A) (A) (A) (A)
                 (A) (A) (A) (A) (A) (A) (A) (A) (A) (A) (A) (A)
                 (A) (A) (A) (A) (A) (A) (A) (A) (A) (A) (A) (A)
                 (A) (A) (A) (A) (A) (A) (A) (A) (A) (A) (A) (A)
                 (A) (A) (A) (A) (A) (A) (A) (A) (A) (A) (A) (A)
                 (A) (A) (A) (A) (A) (A) (A) (A) (A) (A) (A) (A)
                 (A) (A) (A) (A) (A) (A) (A) (A) (A) (A) (A) (A)
                 (A) (A) (A) (A) (A) (A) (A) (A) (A) (A) (A) (A)
                 (A) (A) (A) (A) (A) (A) (A) (A) (A) (A) (A) (A)
                 (A) (A) (A) (A) (A) (A) (A) (A) (A) (A) (A) (A)
                 (A) (A) (A) (A) (A) (A) (A) (A) (A) (A) (A) (A)
                 (A) (A) (A) (A) (A) (A) (A) (A) (A) (A) (A) (A)
                 (A) (A) (A) (A) (A) (A) (A) (A) (A) (A) (A) (A)
                 (A) (A) (A) (A) (A) (A) (A) (A) (A) (A) (A) (A)
                 (A) (A) (A) (A) (A) (A) (A) (A) (A) (A) (A) (A)
                 (A) (A) (A) (A) (A) (A) (A) (A) (A) (A) (A) (A)
                 (A) (A) (A) (A) (A) (A) (A) (A) (A) (A) (A) (A)
 Beta  Orbitals:
       Occupied  (A) (A) (A) (A) (A) (A) (A) (A) (A) (A) (A) (A)
                 (A) (A) (A) (A) (A) (A) (A) (A) (A) (A) (A) (A)
                 (A)
       Virtual   (A) (A) (A) (A) (A) (A) (A) (A) (A) (A) (A) (A)
                 (A) (A) (A) (A) (A) (A) (A) (A) (A) (A) (A) (A)
                 (A) (A) (A) (A) (A) (A) (A) (A) (A) (A) (A) (A)
                 (A) (A) (A) (A) (A) (A) (A) (A) (A) (A) (A) (A)
                 (A) (A) (A) (A) (A) (A) (A) (A) (A) (A) (A) (A)
                 (A) (A) (A) (A) (A) (A) (A) (A) (A) (A) (A) (A)
                 (A) (A) (A) (A) (A) (A) (A) (A) (A) (A) (A) (A)
                 (A) (A) (A) (A) (A) (A) (A) (A) (A) (A) (A) (A)
                 (A) (A) (A) (A) (A) (A) (A) (A) (A) (A) (A) (A)
                 (A) (A) (A) (A) (A) (A) (A) (A) (A) (A) (A) (A)
                 (A) (A) (A) (A) (A) (A) (A) (A) (A) (A) (A) (A)
                 (A) (A) (A) (A) (A) (A) (A) (A) (A) (A) (A) (A)
                 (A) (A) (A) (A) (A) (A) (A) (A) (A) (A) (A) (A)
                 (A) (A) (A) (A) (A) (A) (A) (A) (A) (A) (A) (A)
                 (A) (A) (A) (A) (A) (A) (A) (A) (A) (A) (A) (A)
                 (A) (A) (A) (A) (A) (A) (A) (A) (A) (A) (A) (A)
                 (A) (A) (A) (A) (A) (A) (A) (A) (A) (A) (A) (A)
 The electronic state is 1-A.
 Alpha  occ. eigenvalues --  -19.30127 -14.63256 -14.59452 -14.55550 -14.44100
 Alpha  occ. eigenvalues --  -10.41965 -10.35456  -1.28037  -1.25587  -1.07236
 Alpha  occ. eigenvalues --   -0.97775  -0.92564  -0.74176  -0.66979  -0.64088
 Alpha  occ. eigenvalues --   -0.63315  -0.61870  -0.59856  -0.57302  -0.56522
 Alpha  occ. eigenvalues --   -0.49314  -0.45700  -0.39259  -0.34014  -0.25004
 Alpha virt. eigenvalues --   -0.09230  -0.04575   0.02551   0.09933   0.13767
 Alpha virt. eigenvalues --    0.15051   0.18443   0.19155   0.24303   0.26997
 Alpha virt. eigenvalues --    0.28299   0.30105   0.31894   0.32574   0.34188
 Alpha virt. eigenvalues --    0.35837   0.38109   0.40282   0.41589   0.44544
 Alpha virt. eigenvalues --    0.45183   0.46385   0.48177   0.49215   0.50749
 Alpha virt. eigenvalues --    0.53334   0.54187   0.54772   0.54891   0.57010
 Alpha virt. eigenvalues --    0.57755   0.59895   0.61534   0.64472   0.64921
 Alpha virt. eigenvalues --    0.67670   0.70471   0.72478   0.76912   0.78797
 Alpha virt. eigenvalues --    0.80135   0.82018   0.86673   0.90806   0.92375
 Alpha virt. eigenvalues --    0.99182   1.00131   1.01462   1.04932   1.09756
 Alpha virt. eigenvalues --    1.11339   1.14541   1.21208   1.25062   1.29294
 Alpha virt. eigenvalues --    1.30242   1.31396   1.33056   1.38621   1.42687
 Alpha virt. eigenvalues --    1.43672   1.47095   1.50285   1.51019   1.53622
 Alpha virt. eigenvalues --    1.55741   1.58601   1.60907   1.64010   1.66180
 Alpha virt. eigenvalues --    1.68803   1.71007   1.75725   1.78294   1.80799
 Alpha virt. eigenvalues --    1.84387   1.87434   1.89643   1.91749   1.97398
 Alpha virt. eigenvalues --    2.01933   2.05351   2.07404   2.11019   2.12878
 Alpha virt. eigenvalues --    2.14337   2.18440   2.22447   2.24598   2.25475
 Alpha virt. eigenvalues --    2.29286   2.32595   2.37258   2.40359   2.43915
 Alpha virt. eigenvalues --    2.46646   2.49196   2.56461   2.60678   2.64399
 Alpha virt. eigenvalues --    2.66357   2.68153   2.74261   2.81328   2.85119
 Alpha virt. eigenvalues --    2.88269   2.91939   2.94000   2.96909   2.98627
 Alpha virt. eigenvalues --    3.01844   3.07704   3.11331   3.13367   3.15651
 Alpha virt. eigenvalues --    3.19377   3.23164   3.26409   3.27692   3.35377
 Alpha virt. eigenvalues --    3.37950   3.43410   3.46695   3.49138   3.55697
 Alpha virt. eigenvalues --    3.57785   3.61143   3.64875   3.70666   3.73401
 Alpha virt. eigenvalues --    3.73972   3.76269   3.78287   3.83161   3.85901
 Alpha virt. eigenvalues --    3.89639   3.94946   4.03525   4.04014   4.07837
 Alpha virt. eigenvalues --    4.10855   4.20860   4.22238   4.29892   4.31727
 Alpha virt. eigenvalues --    4.38270   4.38634   4.42523   4.43800   4.48514
 Alpha virt. eigenvalues --    4.51261   4.56371   4.61693   4.62845   4.66029
 Alpha virt. eigenvalues --    4.70667   4.73074   4.75814   4.78665   4.79053
 Alpha virt. eigenvalues --    4.82441   4.86899   4.91316   4.92235   4.99324
 Alpha virt. eigenvalues --    5.04350   5.04555   5.07869   5.10912   5.12061
 Alpha virt. eigenvalues --    5.14756   5.21397   5.23563   5.24644   5.26225
 Alpha virt. eigenvalues --    5.38231   5.39237   5.45145   5.54389   5.57972
 Alpha virt. eigenvalues --    5.71185   5.78222   5.79030   5.86949   6.01350
 Alpha virt. eigenvalues --    6.35189   6.35791   6.38594   6.51369   6.55985
 Alpha virt. eigenvalues --    6.61036   6.71677   6.86718   7.02118   7.13286
 Alpha virt. eigenvalues --    7.32620   7.43971  22.89152  23.29892  31.71638
 Alpha virt. eigenvalues --   32.07842  32.53817  32.91133  44.14963
  Beta  occ. eigenvalues --  -19.30127 -14.63256 -14.59452 -14.55550 -14.44100
  Beta  occ. eigenvalues --  -10.41965 -10.35456  -1.28037  -1.25587  -1.07236
  Beta  occ. eigenvalues --   -0.97775  -0.92564  -0.74176  -0.66979  -0.64088
  Beta  occ. eigenvalues --   -0.63315  -0.61870  -0.59856  -0.57302  -0.56522
  Beta  occ. eigenvalues --   -0.49314  -0.45700  -0.39259  -0.34014  -0.25004
  Beta virt. eigenvalues --   -0.09230  -0.04575   0.02551   0.09933   0.13767
  Beta virt. eigenvalues --    0.15051   0.18443   0.19155   0.24303   0.26997
  Beta virt. eigenvalues --    0.28299   0.30105   0.31894   0.32574   0.34188
  Beta virt. eigenvalues --    0.35837   0.38109   0.40282   0.41589   0.44544
  Beta virt. eigenvalues --    0.45183   0.46385   0.48177   0.49215   0.50749
  Beta virt. eigenvalues --    0.53334   0.54187   0.54772   0.54891   0.57010
  Beta virt. eigenvalues --    0.57755   0.59895   0.61534   0.64472   0.64921
  Beta virt. eigenvalues --    0.67670   0.70471   0.72478   0.76912   0.78797
  Beta virt. eigenvalues --    0.80135   0.82018   0.86673   0.90806   0.92375
  Beta virt. eigenvalues --    0.99182   1.00131   1.01462   1.04932   1.09756
  Beta virt. eigenvalues --    1.11339   1.14541   1.21208   1.25062   1.29294
  Beta virt. eigenvalues --    1.30242   1.31396   1.33056   1.38621   1.42687
  Beta virt. eigenvalues --    1.43672   1.47095   1.50285   1.51019   1.53622
  Beta virt. eigenvalues --    1.55741   1.58601   1.60907   1.64010   1.66180
  Beta virt. eigenvalues --    1.68803   1.71007   1.75725   1.78294   1.80799
  Beta virt. eigenvalues --    1.84387   1.87434   1.89643   1.91749   1.97398
  Beta virt. eigenvalues --    2.01933   2.05351   2.07404   2.11019   2.12878
  Beta virt. eigenvalues --    2.14337   2.18440   2.22447   2.24598   2.25475
  Beta virt. eigenvalues --    2.29286   2.32595   2.37258   2.40359   2.43915
  Beta virt. eigenvalues --    2.46646   2.49196   2.56461   2.60678   2.64399
  Beta virt. eigenvalues --    2.66357   2.68153   2.74261   2.81328   2.85119
  Beta virt. eigenvalues --    2.88269   2.91939   2.94000   2.96909   2.98627
  Beta virt. eigenvalues --    3.01844   3.07704   3.11331   3.13367   3.15651
  Beta virt. eigenvalues --    3.19377   3.23164   3.26409   3.27692   3.35377
  Beta virt. eigenvalues --    3.37950   3.43410   3.46695   3.49138   3.55697
  Beta virt. eigenvalues --    3.57785   3.61143   3.64875   3.70666   3.73401
  Beta virt. eigenvalues --    3.73972   3.76269   3.78287   3.83161   3.85901
  Beta virt. eigenvalues --    3.89639   3.94946   4.03525   4.04014   4.07837
  Beta virt. eigenvalues --    4.10855   4.20860   4.22238   4.29892   4.31727
  Beta virt. eigenvalues --    4.38270   4.38634   4.42523   4.43800   4.48514
  Beta virt. eigenvalues --    4.51261   4.56371   4.61693   4.62845   4.66029
  Beta virt. eigenvalues --    4.70667   4.73074   4.75814   4.78665   4.79053
  Beta virt. eigenvalues --    4.82441   4.86899   4.91316   4.92235   4.99324
  Beta virt. eigenvalues --    5.04350   5.04555   5.07869   5.10912   5.12061
  Beta virt. eigenvalues --    5.14756   5.21397   5.23563   5.24644   5.26225
  Beta virt. eigenvalues --    5.38231   5.39237   5.45145   5.54389   5.57972
  Beta virt. eigenvalues --    5.71185   5.78222   5.79030   5.86949   6.01350
  Beta virt. eigenvalues --    6.35189   6.35791   6.38594   6.51369   6.55985
  Beta virt. eigenvalues --    6.61036   6.71677   6.86718   7.02118   7.13286
  Beta virt. eigenvalues --    7.32620   7.43971  22.89152  23.29892  31.71638
  Beta virt. eigenvalues --   32.07842  32.53817  32.91133  44.14963
          Condensed to atoms (all electrons):
               1          2          3          4          5          6
     1  N    6.537900   0.688028  -0.084962  -0.003457  -0.000643  -0.002043
     2  C    0.688028   4.826306   0.295615  -0.063496   0.004346  -0.088654
     3  N   -0.084962   0.295615   6.306582   0.409023  -0.000151   0.001191
     4  N   -0.003457  -0.063496   0.409023   6.701337  -0.000004   0.001064
     5  O   -0.000643   0.004346  -0.000151  -0.000004   8.096530   0.252059
     6  N   -0.002043  -0.088654   0.001191   0.001064   0.252059   6.106247
     7  C   -0.095173   0.280090  -0.043931   0.005577  -0.065083   0.569961
     8  H    0.344662  -0.058072  -0.010884   0.000820   0.000007   0.000298
     9  H   -0.002313  -0.138342   0.024558   0.005903   0.004072  -0.024386
               7          8          9
     1  N   -0.095173   0.344662  -0.002313
     2  C    0.280090  -0.058072  -0.138342
     3  N   -0.043931  -0.010884   0.024558
     4  N    0.005577   0.000820   0.005903
     5  O   -0.065083   0.000007   0.004072
     6  N    0.569961   0.000298  -0.024386
     7  C    5.064098   0.014468   0.430273
     8  H    0.014468   0.486790  -0.000289
     9  H    0.430273  -0.000289   0.573942
          Atomic-Atomic Spin Densities.
               1          2          3          4          5          6
     1  N   -0.000000   0.000000   0.000000  -0.000000   0.000000  -0.000000
     2  C    0.000000  -0.000000  -0.000000   0.000000   0.000000   0.000000
     3  N    0.000000  -0.000000  -0.000000   0.000000  -0.000000   0.000000
     4  N   -0.000000   0.000000   0.000000  -0.000000   0.000000  -0.000000
     5  O    0.000000   0.000000  -0.000000   0.000000   0.000000  -0.000000
     6  N   -0.000000   0.000000   0.000000  -0.000000  -0.000000   0.000000
     7  C    0.000000   0.000000  -0.000000  -0.000000  -0.000000   0.000000
     8  H    0.000000  -0.000000   0.000000  -0.000000   0.000000  -0.000000
     9  H    0.000000  -0.000000   0.000000   0.000000   0.000000  -0.000000
               7          8          9
     1  N    0.000000   0.000000   0.000000
     2  C    0.000000  -0.000000  -0.000000
     3  N   -0.000000   0.000000   0.000000
     4  N   -0.000000  -0.000000   0.000000
     5  O   -0.000000   0.000000   0.000000
     6  N    0.000000  -0.000000  -0.000000
     7  C    0.000000   0.000000  -0.000000
     8  H    0.000000  -0.000000  -0.000000
     9  H   -0.000000  -0.000000   0.000000
 Mulliken charges and spin densities:
               1          2
     1  N   -0.382001  -0.000000
     2  C    0.254179  -0.000000
     3  N    0.102959  -0.000000
     4  N   -0.056766  -0.000000
     5  O   -0.291134   0.000000
     6  N    0.184262   0.000000
     7  C   -0.160281   0.000000
     8  H    0.222200  -0.000000
     9  H    0.126582   0.000000
 Sum of Mulliken charges =  -0.00000  -0.00000
 Mulliken charges and spin densities with hydrogens summed into heavy atoms:
               1          2
     1  N   -0.159801  -0.000000
     2  C    0.254179  -0.000000
     3  N    0.102959  -0.000000
     4  N   -0.056766  -0.000000
     5  O   -0.291134   0.000000
     6  N    0.184262   0.000000
     7  C   -0.033699   0.000000
 Electronic spatial extent (au):  <R**2>=            831.8077
 Charge=             -0.0000 electrons
 Dipole moment (field-independent basis, Debye):
    X=             -4.3816    Y=             -1.7119    Z=              0.5867  Tot=              4.7406
 Quadrupole moment (field-independent basis, Debye-Ang):
   XX=            -45.0822   YY=            -38.0435   ZZ=            -39.3727
   XY=             -3.2317   XZ=             -0.0112   YZ=              0.1704
 Traceless Quadrupole moment (field-independent basis, Debye-Ang):
   XX=             -4.2494   YY=              2.7893   ZZ=              1.4601
   XY=             -3.2317   XZ=             -0.0112   YZ=              0.1704
 Octapole moment (field-independent basis, Debye-Ang**2):
  XXX=            -20.6899  YYY=             -5.0476  ZZZ=             -0.5354  XYY=             -3.9938
  XXY=              8.3364  XXZ=              2.1980  XZZ=              1.2445  YZZ=             -1.0315
  YYZ=              1.1061  XYZ=              0.3229
 Hexadecapole moment (field-independent basis, Debye-Ang**3):
 XXXX=           -917.3095 YYYY=           -169.7241 ZZZZ=            -41.8496 XXXY=            -16.1908
 XXXZ=             -2.9345 YYYX=            -16.0662 YYYZ=              0.4330 ZZZX=             -0.9651
 ZZZY=              0.9904 XXYY=           -150.5806 XXZZ=           -141.5102 YYZZ=            -37.9238
 XXYZ=              2.1229 YYXZ=             -1.1206 ZZXY=             -0.4857
 N-N= 2.561450774889D+02 E-N=-1.380884262110D+03  KE= 3.699895823458D+02
                          Isotropic Fermi Contact Couplings
        Atom                 a.u.       MegaHertz       Gauss      10(-4) cm-1
     1  N(14)             -0.00000      -0.00000      -0.00000      -0.00000
     2  C(13)              0.00000       0.00000       0.00000       0.00000
     3  N(14)             -0.00000      -0.00000      -0.00000      -0.00000
     4  N(14)             -0.00000      -0.00000      -0.00000      -0.00000
     5  O(17)              0.00000      -0.00000      -0.00000      -0.00000
     6  N(14)              0.00000       0.00000       0.00000       0.00000
     7  C(13)              0.00000       0.00000       0.00000       0.00000
     8  H(1)               0.00000       0.00000       0.00000       0.00000
     9  H(1)               0.00000       0.00000       0.00000       0.00000
 --------------------------------------------------------
       Center         ----  Spin Dipole Couplings  ----
                      3XX-RR        3YY-RR        3ZZ-RR
 --------------------------------------------------------
     1   Atom        0.000000      0.000000     -0.000000
     2   Atom        0.000000     -0.000000     -0.000000
     3   Atom        0.000000      0.000000     -0.000000
     4   Atom        0.000000      0.000000     -0.000000
     5   Atom       -0.000000      0.000000     -0.000000
     6   Atom       -0.000000      0.000000     -0.000000
     7   Atom        0.000000     -0.000000      0.000000
     8   Atom       -0.000000      0.000000      0.000000
     9   Atom       -0.000000      0.000000     -0.000000
 --------------------------------------------------------
                        XY            XZ            YZ
 --------------------------------------------------------
     1   Atom       -0.000000     -0.000000     -0.000000
     2   Atom       -0.000000     -0.000000     -0.000000
     3   Atom       -0.000000      0.000000      0.000000
     4   Atom       -0.000000      0.000000      0.000000
     5   Atom       -0.000000      0.000000     -0.000000
     6   Atom       -0.000000      0.000000     -0.000000
     7   Atom        0.000000     -0.000000     -0.000000
     8   Atom        0.000000      0.000000     -0.000000
     9   Atom        0.000000     -0.000000     -0.000000
 --------------------------------------------------------


 ---------------------------------------------------------------------------------
              Anisotropic Spin Dipole Couplings in Principal Axis System
 ---------------------------------------------------------------------------------

       Atom             a.u.   MegaHertz   Gauss  10(-4) cm-1        Axes

              Baa    -0.0000    -0.000    -0.000    -0.000  0.1072  0.0335  0.9937
     1 N(14)  Bbb     0.0000     0.000     0.000     0.000  0.4340  0.8976 -0.0771
              Bcc     0.0000     0.000     0.000     0.000  0.8945 -0.4395 -0.0817
 
              Baa    -0.0000    -0.000    -0.000    -0.000  0.4754  0.5273  0.7042
     2 C(13)  Bbb     0.0000     0.000     0.000     0.000  0.0351  0.7884 -0.6141
              Bcc     0.0000     0.000     0.000     0.000  0.8790 -0.3167 -0.3563
 
              Baa    -0.0000    -0.000    -0.000    -0.000 -0.0102 -0.0544  0.9985
     3 N(14)  Bbb     0.0000     0.000     0.000     0.000  0.9567  0.2898  0.0255
              Bcc     0.0000     0.000     0.000     0.000 -0.2908  0.9555  0.0491
 
              Baa    -0.0000    -0.000    -0.000    -0.000 -0.1419 -0.1257  0.9819
     4 N(14)  Bbb     0.0000     0.000     0.000     0.000  0.1549  0.9769  0.1474
              Bcc     0.0000     0.000     0.000     0.000  0.9777 -0.1730  0.1191
 
              Baa    -0.0000     0.000     0.000     0.000 -0.1091  0.2294  0.9672
     5 O(17)  Bbb    -0.0000     0.000     0.000     0.000  0.9880  0.1323  0.0800
              Bcc     0.0000    -0.000    -0.000    -0.000 -0.1096  0.9643 -0.2411
 
              Baa    -0.0000    -0.000    -0.000    -0.000  0.1516  0.3939  0.9066
     6 N(14)  Bbb    -0.0000    -0.000    -0.000    -0.000  0.9801  0.0594 -0.1896
              Bcc     0.0000     0.000     0.000     0.000 -0.1285  0.9172 -0.3770
 
              Baa    -0.0000    -0.000    -0.000    -0.000 -0.4786  0.8435 -0.2438
     7 C(13)  Bbb    -0.0000    -0.000    -0.000    -0.000  0.6196  0.5211  0.5870
              Bcc     0.0000     0.000     0.000     0.000 -0.6222 -0.1299  0.7720
 
              Baa    -0.0000    -0.000    -0.000    -0.000  0.8711 -0.4877 -0.0578
     8 H(1)   Bbb     0.0000     0.000     0.000     0.000  0.1186  0.0947  0.9884
              Bcc     0.0000     0.000     0.000     0.000  0.4766  0.8679 -0.1404
 
              Baa    -0.0000    -0.000    -0.000    -0.000  0.8287 -0.3586  0.4297
     9 H(1)   Bbb    -0.0000    -0.000    -0.000    -0.000 -0.3259  0.3150  0.8914
              Bcc     0.0000     0.000     0.000     0.000  0.4551  0.8787 -0.1441
 

 ---------------------------------------------------------------------------------

 1\1\GINC-NODE305\SP\UwB97XD\def2TZVP\C2H2N4O1\MHARRIS\22-Jun-2021\0\\#
  UwB97XD/Def2TZVP\\something title\\0,1\N,0,-0.502186,-0.165802,-1.289
 157\C,0,-0.445587,-0.873358,-0.212866\N,0,-1.538981,-1.103745,0.527732
 \N,0,-2.629044,-1.374417,0.726918\O,0,3.06778,-1.387355,-0.303374\N,0,
 1.862078,-1.35372,-0.272001\C,0,0.818357,-1.233217,0.425777\H,0,-1.412
 666,0.217333,-1.542462\H,0,0.756324,-1.537684,1.461753\\Version=ES64L-
 G16RevA.03\State=1-A\HF=-371.4008974\S2=0.\S2-1=0.\S2A=0.\RMSD=6.984e-
 09\Dipole=-1.6354996,-0.0545432,0.8948438\Quadrupole=-2.7621151,1.6314
 149,1.1307002,-1.0535553,2.523189,-0.5079388\PG=C01 [X(C2H2N4O1)]\\@


 A DANDELION FROM A LOVER MEANS MORE THAN AN ORCHID FROM A FRIEND.
 Job cpu time:       0 days  0 hours 23 minutes 37.5 seconds.
 Elapsed time:       0 days  0 hours  5 minutes 54.7 seconds.
 File lengths (MBytes):  RWF=     54 Int=      0 D2E=      0 Chk=      5 Scr=      1
 Normal termination of Gaussian 16 at Tue Jun 22 15:57:16 2021.
