      -----------------------------------------------------------      
     |                   =====================                   |     
     |                           x T B                           |     
     |                   =====================                   |     
     |                         S. Grimme                         |     
     |          Mulliken Center for Theoretical Chemistry        |     
     |                    University of Bonn                     |     
     |                 Version 6.1.4 (SAW190525)                 |     
      -----------------------------------------------------------      

   This program is distributed in the hope that it will be useful,
   but WITHOUT ANY WARRANTY; without even the implied warranty of
   MERCHANTABILITY or FITNESS FOR A PARTICULAR PURPOSE.
   
   FOR NON-COMMERCIAL, ACADEMIA USE ONLY.
   
   Cite this work as:
   S. Grimme, C. Bannwarth, P. Shushkov, J. Comput. Theory Chem., 2017,
   13, 1989-2009. DOI: 10.1021/acs.jctc.7b00118
   C. Bannwarth, S. Ehlert and S. Grimme., J. Comput. Theory Chem., 2019,
   just accepted. DOI: 10.1021/acs.jctc.8b01176
   
   for sTDA-xTB:
   S. Grimme and C. Bannwarth, J. Chem. Phys., 2016, 145, 054103.
   DOI: 10.1063/1.4959605
   
   in the mass-spec context:
   V. Asgeirsson, C. Bauer and S. Grimme, Chem. Sci., 2017, 8, 4879.
   DOI: 10.1039/c7sc00601b
   
   for metadynamics refer to:
   S. Grimme, J. Chem. Theory Comput. Article ASAP, 2019,
   DOI: 10.1021/acs.jctc.9b00143
   
   with help from (in alphabetical order)
   C. Bannwarth, F. Bohle, G. Brandenburg, E. Caldeweyher, M. Checinski,
   S. Dohm, S. Ehlert, S. Ehrlich, F. März, H. Neugebauer, J. Pisarek,
   P. Pracht, P. Shushkov, and S. Spicher.
   
 * started run on 2021/06/02 at 10:00:08.777     

           -------------------------------------------------
          |                Calculation Setup                |
           -------------------------------------------------

          program call               : /groups/kemi/koerstz/opt/xtb/6.1/bin/xtb path_point_17.xyz --gfn2 --acc 0.2 --chrg 0
          hostname                   : node305
          coordinate file            : path_point_17.xyz
          omp threads                :                     1
          number of atoms            :                     9
          number of electrons        :                    36
          charge                     :                     0
          spin                       :                   0.0
          first test random number   :      0.92955092061862


########################################################################
# WARNING! Please study the warnings concerning your input carefully
#  - XTBPATH is not set, using XTBHOME instead
########################################################################

           ------------------------------------------------- 
          |                 G F N 2 - x T B                 |
          | Geometry, Frequencies, Noncovalent interactions |
          |            JCTC 2018 parametrisation            |
           ------------------------------------------------- 
             k(s)              :                1.8500
             k(p)              :                2.2300
             k(d)              :                2.2300
             k(f)              :                2.0000
             kEN (H0ij)        :               -2.0000
             D4 a1             :                0.5200
             D4 a2             :                5.0000
             D4 s6             :                1.0000
             D4 s8             :                2.7000
             D4 s9             :                5.0000
             alphaj            :                2.0000

  Z AO/shell   Hii/eV     exponent
  1     Wed Apr 25 08:07:45 CEST 2018   EN: 2.200 GM2: 0.406  GM3: 0.0800  RAES: 1.40
     1s    -10.707211    1.230000
  6     Wed Apr 25 08:07:45 CEST 2018   EN: 2.550 GM2: 0.538  GM3: 0.1500  RAES: 3.00
     2s    -13.970922    2.096432
     2p    -10.063292    1.800000
  7     Wed Apr 25 08:07:45 CEST 2018   EN: 3.040 GM2: 0.461  GM3:-0.0640  RAES: 1.90
     2s    -16.686243    2.339881
     2p    -12.523956    2.014332
  8     Wed Apr 25 08:07:45 CEST 2018   EN: 3.440 GM2: 0.452  GM3:-0.0517  RAES: 1.80
     2s    -20.229985    2.439742
     2p    -15.503117    2.137023


            Z     q(EN)     CN     RAES       Cart. coordinates
     1  N   5.0   -0.42    2.02    1.90    -0.97869    -0.28634    -2.41218
     2  C   4.0    0.31    3.02    3.02    -0.82709    -1.61226    -0.37644
     3  N   5.0   -0.15    2.03    1.90    -2.90872    -2.15356     0.94431
     4  N   5.0   -0.15    1.00    1.90    -4.97441    -2.48976     1.42954
     5  O   6.0   -0.10    1.00    1.80     5.77229    -2.67698    -0.40523
     6  N   5.0   -0.14    2.01    1.90     3.52898    -2.44843    -0.60613
     7  C   4.0    0.13    3.01    3.02     1.56011    -2.34610     0.75647
     8  H   1.0    0.33    1.00    1.43    -2.71796     0.31942    -2.94460
     9  H   1.0    0.18    0.99    1.43     1.50028    -2.95818     2.71158

           ------------------------------------------------- 
          |        Self-Consistent Charge Iterations        |
           ------------------------------------------------- 
q/qsh data taken from xtbrestart
CAMM data taken from xtbrestart

          ...................................................
          :                      SETUP                      :
          :.................................................:
          :  # basis functions                  30          :
          :  # atomic orbitals                  30          :
          :  # shells                           16          :
          :  # electrons                        36          :
          :  max. iterations                   250          :
          :  Hamiltonian                  GFN2-xTB          :
          :  restarted?                       true          :
          :  GBSA solvation                  false          :
          :  PC potential                    false          :
          :  electronic temp.          300.0000000     K    :
          :  accuracy                    0.2000000          :
          :  -> integral cutoff          0.3198970E+02      :
          :  -> integral neglect         0.2000000E-08      :
          :  -> SCF convergence          0.2000000E-06 Eh   :
          :  -> wf. convergence          0.2000000E-04 e    :
          :  Broyden damping             0.4000000          :
          ...................................................

 iter      E             dE          RMSdq      gap      omega  full diag
   1    -20.9492958 -0.209493E+02  0.328E+00    0.37       0.0  T
   2    -18.9965498  0.195275E+01  0.116E+01    0.42       1.0  T
   3    -20.8207422 -0.182419E+01  0.482E+00    0.49       1.0  T
   4    -21.0778670 -0.257125E+00  0.601E-01    0.16       1.0  T
   5    -21.0794837 -0.161670E-02  0.331E-01    0.15       1.0  T
   6    -21.0761346  0.334911E-02  0.642E-01    0.15       1.0  T
   7    -21.0792757 -0.314115E-02  0.276E-01    0.15       1.0  T
   8    -21.0769930  0.228271E-02  0.538E-01    0.14       1.0  T
   9    -21.0786742 -0.168116E-02  0.383E-01    0.14       1.0  T
  10    -21.0803407 -0.166652E-02  0.630E-02    0.15       1.0  T
  11    -21.0802805  0.602459E-04  0.970E-02    0.15       1.0  T
  12    -21.0803954 -0.114977E-03  0.818E-03    0.15       4.1  T
  13    -21.0803961 -0.697596E-06  0.680E-04    0.15      49.0  T
  14    -21.0803959  0.256289E-06  0.455E-03    0.15       7.3  T
  15    -21.0803961 -0.251837E-06  0.714E-04    0.15      46.7  T
  16    -21.0803961 -0.401176E-08  0.469E-04    0.15      71.0  T
  17    -21.0803961 -0.279232E-08  0.375E-05    0.15     888.2  T
  18    -21.0803961  0.100897E-11  0.305E-05    0.15    1091.1  T

   *** convergence criteria satisfied after 18 iterations ***

         #    Occupation            Energy/Eh            Energy/eV
      -------------------------------------------------------------
         1        2.0000           -0.7500781             -20.4107
       ...           ...                  ...                  ...
        12        2.0000           -0.5526186             -15.0375
        13        2.0000           -0.5212228             -14.1832
        14        2.0000           -0.5050357             -13.7427
        15        2.0000           -0.5043144             -13.7231
        16        2.0000           -0.4293600             -11.6835
        17        2.0000           -0.4258150             -11.5870
        18        1.8897           -0.3610395              -9.8244 (HOMO)
        19        0.1103           -0.3556420              -9.6775 (LUMO)
        20                         -0.3396314              -9.2418
        21                         -0.2787514              -7.5852
        22                         -0.1817622              -4.9460
        23                          0.0275310               0.7492
       ...                                ...                  ...
        30                          0.8510401              23.1580
      -------------------------------------------------------------
                  HL-Gap            0.0053974 Eh            0.1469 eV
             Fermi-level           -0.3583407 Eh           -9.7509 eV

 SCC (total)                   0 d,  0 h,  0 min,  0.008 sec
 SCC setup                      ...        0 min,  0.000 sec (  1.455%)
 Dispersion                     ...        0 min,  0.000 sec (  0.652%)
 integral evaluation            ...        0 min,  0.001 sec ( 12.328%)
 zeroth order Hamiltonian       ...        0 min,  0.000 sec (  0.367%)
 iterations                     ...        0 min,  0.005 sec ( 60.747%)
 molecular gradient             ...        0 min,  0.002 sec ( 22.239%)
 printout                       ...        0 min,  0.000 sec (  1.752%)

         :::::::::::::::::::::::::::::::::::::::::::::::::::::
         ::                     SUMMARY                     ::
         :::::::::::::::::::::::::::::::::::::::::::::::::::::
         :: total energy              -20.832027483877 Eh   ::
         :: gradient norm               0.032500228842 Eh/α ::
         :: HOMO-LUMO gap               0.146871634130 eV   ::
         ::.................................................::
         :: SCC energy                -21.080396147053 Eh   ::
         :: -> isotropic ES             0.025943154109 Eh   ::
         :: -> anisotropic ES           0.004324213733 Eh   ::
         :: -> anisotropic XC           0.024249271470 Eh   ::
         :: -> dispersion              -0.005515338616 Eh   ::
         :: repulsion energy            0.248367877342 Eh   ::
         :: add. restraining            0.000000000000 Eh   ::
         :::::::::::::::::::::::::::::::::::::::::::::::::::::

           -------------------------------------------------
          |                Property Printout                |
           -------------------------------------------------

    * Orbital Energies and Occupations

         #    Occupation            Energy/Eh            Energy/eV
      -------------------------------------------------------------
         1        2.0000           -0.7500781             -20.4107
       ...           ...                  ...                  ...
         6        2.0000           -0.6324334             -17.2094
         7        2.0000           -0.6127942             -16.6750
         8        2.0000           -0.6075064             -16.5311
         9        2.0000           -0.5940985             -16.1662
        10        2.0000           -0.5895113             -16.0414
        11        2.0000           -0.5674620             -15.4414
        12        2.0000           -0.5526186             -15.0375
        13        2.0000           -0.5212228             -14.1832
        14        2.0000           -0.5050357             -13.7427
        15        2.0000           -0.5043144             -13.7231
        16        2.0000           -0.4293600             -11.6835
        17        2.0000           -0.4258150             -11.5870
        18        1.8897           -0.3610395              -9.8244 (HOMO)
        19        0.1103           -0.3556420              -9.6775 (LUMO)
        20                         -0.3396314              -9.2418
        21                         -0.2787514              -7.5852
        22                         -0.1817622              -4.9460
        23                          0.0275310               0.7492
        24                          0.0549580               1.4955
        25                          0.1753370               4.7712
        26                          0.2015984               5.4858
        27                          0.3314831               9.0201
        28                          0.4619254              12.5696
        29                          0.6588957              17.9295
        30                          0.8510401              23.1580
      -------------------------------------------------------------
                  HL-Gap            0.0053974 Eh            0.1469 eV
             Fermi-level           -0.3583407 Eh           -9.7509 eV

   #   Z        covCN         q      C6AA      α(0)
   1   7 N      1.792    -0.310    28.858     7.957
   2   6 C      2.816     0.148    24.776     8.156
   3   7 N      1.917     0.132    19.600     6.564
   4   7 N      0.984    -0.095    22.739     6.859
   5   8 O      0.925    -0.260    19.047     5.853
   6   7 N      1.846     0.187    18.725     6.413
   7   6 C      2.832    -0.035    28.850     8.802
   8   1 H      0.860     0.157     1.358     1.825
   9   1 H      0.925     0.076     2.021     2.223

 Mol. C6AA /au·bohr⁶  :       1305.295335
 Mol. C8AA /au·bohr⁸  :      29823.270633
 Mol. α(0) /au        :         54.651523


Wiberg/Mayer (AO) data.
largest (>0.10) Wiberg bond orders for each atom
          total WBO             WBO to atom ...
     1  N   3.082        C    2 1.524    H    8 0.945    N    4 0.164    O    5 0.127    N    6 0.126    N    3 0.125
     2  C   3.932        N    1 1.524    N    3 1.136    C    7 1.073    N    4 0.118
     3  N   3.689        N    4 2.261    C    2 1.136    N    1 0.125
     4  N   2.759        N    3 2.261    N    1 0.164    N    6 0.156    C    2 0.118
     5  O   2.000        N    6 1.506    C    7 0.250    N    1 0.127
     6  N   3.499        C    7 1.595    O    5 1.506    N    4 0.156    N    1 0.126
     7  C   3.943        N    6 1.595    C    2 1.073    H    9 0.911    O    5 0.250
     8  H   0.975        N    1 0.945
     9  H   0.982        C    7 0.911

molecular dipole:
                 x           y           z       tot (Debye)
 q only:       -0.937      -0.053       0.392
   full:       -1.152      -0.075       0.647       3.363
molecular quadrupole (traceless):
                xx          xy          yy          xz          yz          zz
 q only:       -6.623       2.725       3.362       2.037      -1.132       3.262
  q+dip:       -8.998       2.146       4.685       4.819      -1.897       4.314
   full:      -10.148       2.060       5.872       5.420      -1.615       4.276


           -------------------------------------------------
          | TOTAL ENERGY              -20.832027483877 Eh   |
          | GRADIENT NORM               0.032500228842 Eh/α |
          | HOMO-LUMO GAP               0.146871634130 eV   |
           -------------------------------------------------

------------------------------------------------------------------------
 * finished run on 2021/06/02 at 10:00:08.793     
------------------------------------------------------------------------
 total:
 * wall-time:     0 d,  0 h,  0 min,  0.016 sec
 *  cpu-time:     0 d,  0 h,  0 min,  0.016 sec
 * ratio c/w:     0.987 speedup
 SCF:
 * wall-time:     0 d,  0 h,  0 min,  0.009 sec
 *  cpu-time:     0 d,  0 h,  0 min,  0.009 sec
 * ratio c/w:     1.000 speedup

