 Entering Gaussian System, Link 0=/software/kemi/g16/avx2/g16/g16
 Initial command:
 /software/kemi/g16/avx2/g16/l1.exe "/scratch/23935644/Gau-15015.inp" -scrdir="/scratch/23935644/"
 Entering Link 1 = /software/kemi/g16/avx2/g16/l1.exe PID=     15016.
  
 Copyright (c) 1988,1990,1992,1993,1995,1998,2003,2009,2016,
            Gaussian, Inc.  All Rights Reserved.
  
 This is part of the Gaussian(R) 16 program.  It is based on
 the Gaussian(R) 09 system (copyright 2009, Gaussian, Inc.),
 the Gaussian(R) 03 system (copyright 2003, Gaussian, Inc.),
 the Gaussian(R) 98 system (copyright 1998, Gaussian, Inc.),
 the Gaussian(R) 94 system (copyright 1995, Gaussian, Inc.),
 the Gaussian 92(TM) system (copyright 1992, Gaussian, Inc.),
 the Gaussian 90(TM) system (copyright 1990, Gaussian, Inc.),
 the Gaussian 88(TM) system (copyright 1988, Gaussian, Inc.),
 the Gaussian 86(TM) system (copyright 1986, Carnegie Mellon
 University), and the Gaussian 82(TM) system (copyright 1983,
 Carnegie Mellon University). Gaussian is a federally registered
 trademark of Gaussian, Inc.
  
 This software contains proprietary and confidential information,
 including trade secrets, belonging to Gaussian, Inc.
  
 This software is provided under written license and may be
 used, copied, transmitted, or stored only in accord with that
 written license.
  
 The following legend is applicable only to US Government
 contracts under FAR:
  
                    RESTRICTED RIGHTS LEGEND
  
 Use, reproduction and disclosure by the US Government is
 subject to restrictions as set forth in subparagraphs (a)
 and (c) of the Commercial Computer Software - Restricted
 Rights clause in FAR 52.227-19.
  
 Gaussian, Inc.
 340 Quinnipiac St., Bldg. 40, Wallingford CT 06492
  
  
 ---------------------------------------------------------------
 Warning -- This program may not be used in any manner that
 competes with the business of Gaussian, Inc. or will provide
 assistance to any competitor of Gaussian, Inc.  The licensee
 of this program is prohibited from giving any competitor of
 Gaussian, Inc. access to this program.  By using this program,
 the user acknowledges that Gaussian, Inc. is engaged in the
 business of creating and licensing software in the field of
 computational chemistry and represents and warrants to the
 licensee that it is not a competitor of Gaussian, Inc. and that
 it will not use this program in any manner prohibited above.
 ---------------------------------------------------------------
  

 Cite this work as:
 Gaussian 16, Revision A.03,
 M. J. Frisch, G. W. Trucks, H. B. Schlegel, G. E. Scuseria, 
 M. A. Robb, J. R. Cheeseman, G. Scalmani, V. Barone, 
 G. A. Petersson, H. Nakatsuji, X. Li, M. Caricato, A. V. Marenich, 
 J. Bloino, B. G. Janesko, R. Gomperts, B. Mennucci, H. P. Hratchian, 
 J. V. Ortiz, A. F. Izmaylov, J. L. Sonnenberg, D. Williams-Young, 
 F. Ding, F. Lipparini, F. Egidi, J. Goings, B. Peng, A. Petrone, 
 T. Henderson, D. Ranasinghe, V. G. Zakrzewski, J. Gao, N. Rega, 
 G. Zheng, W. Liang, M. Hada, M. Ehara, K. Toyota, R. Fukuda, 
 J. Hasegawa, M. Ishida, T. Nakajima, Y. Honda, O. Kitao, H. Nakai, 
 T. Vreven, K. Throssell, J. A. Montgomery, Jr., J. E. Peralta, 
 F. Ogliaro, M. J. Bearpark, J. J. Heyd, E. N. Brothers, K. N. Kudin, 
 V. N. Staroverov, T. A. Keith, R. Kobayashi, J. Normand, 
 K. Raghavachari, A. P. Rendell, J. C. Burant, S. S. Iyengar, 
 J. Tomasi, M. Cossi, J. M. Millam, M. Klene, C. Adamo, R. Cammi, 
 J. W. Ochterski, R. L. Martin, K. Morokuma, O. Farkas, 
 J. B. Foresman, and D. J. Fox, Gaussian, Inc., Wallingford CT, 2016.
 
 ******************************************
 Gaussian 16:  ES64L-G16RevA.03 25-Dec-2016
                22-Jun-2021 
 ******************************************
 %nprocshared=4
 Will use up to    4 processors via shared memory.
 %mem=8GB
 ------------------
 # UwB97XD/Def2TZVP
 ------------------
 1/38=1,172=1/1;
 2/12=2,17=6,18=5,40=1/2;
 3/5=44,7=101,11=2,25=1,30=1,74=-58,116=2/1,2,3;
 4//1;
 5/5=2,38=5/2;
 6/7=2,8=2,9=2,10=2,28=1/1;
 99/5=1,9=1/99;
 ---------------
 something title
 ---------------
 Symbolic Z-matrix:
 Charge =  0 Multiplicity = 1
 N                    -0.5011   -0.16811  -1.28593 
 C                    -0.44349  -0.87938  -0.21236 
 N                    -1.54446  -1.1334    0.50245 
 N                    -2.63303  -1.31492   0.7608 
 O                     3.06108  -1.37448  -0.28856 
 N                     1.87179  -1.31586  -0.26731 
 C                     0.81811  -1.25406   0.41702 
 H                    -1.4142    0.19153  -1.55395 
 H                     0.76139  -1.56328   1.45016 
 
                          Input orientation:                          
 ---------------------------------------------------------------------
 Center     Atomic      Atomic             Coordinates (Angstroms)
 Number     Number       Type             X           Y           Z
 ---------------------------------------------------------------------
      1          7           0       -0.501101   -0.168108   -1.285926
      2          6           0       -0.443491   -0.879384   -0.212358
      3          7           0       -1.544462   -1.133404    0.502448
      4          7           0       -2.633031   -1.314918    0.760796
      5          8           0        3.061075   -1.374484   -0.288559
      6          7           0        1.871792   -1.315861   -0.267312
      7          6           0        0.818108   -1.254064    0.417020
      8          1           0       -1.414204    0.191533   -1.553947
      9          1           0        0.761389   -1.563276    1.450159
 ---------------------------------------------------------------------
                    Distance matrix (angstroms):
                    1          2          3          4          5
     1  N    0.000000
     2  C    1.289101   0.000000
     3  N    2.284443   1.337016   0.000000
     4  N    3.170074   2.435324   1.133434   0.000000
     5  O    3.890910   3.540186   4.679186   5.790297   0.000000
     6  N    2.825868   2.356707   3.506653   4.620653   1.190917
     7  C    2.412393   1.458812   2.367191   3.468753   2.354409
     8  H    1.017317   1.972057   2.449732   3.018769   4.907315
     9  H    3.320623   2.164118   2.529801   3.472606   2.889176
                    6          7          8          9
     6  N    0.000000
     7  C    1.257927   0.000000
     8  H    3.837374   3.310238   0.000000
     9  H    2.060077   1.079910   4.103317   0.000000
 Stoichiometry    C2H2N4O
 Framework group  C1[X(C2H2N4O)]
 Deg. of freedom    21
 Full point group                 C1      NOp   1
 Largest Abelian subgroup         C1      NOp   1
 Largest concise Abelian subgroup C1      NOp   1
                         Standard orientation:                         
 ---------------------------------------------------------------------
 Center     Atomic      Atomic             Coordinates (Angstroms)
 Number     Number       Type             X           Y           Z
 ---------------------------------------------------------------------
      1          7           0       -0.534894    1.544637    0.040829
      2          6           0       -0.560429    0.256336    0.003276
      3          7           0       -1.720348   -0.408119    0.029695
      4          7           0       -2.818005   -0.648877   -0.118150
      5          8           0        2.952655   -0.178540   -0.041908
      6          7           0        1.768100   -0.084898   -0.121552
      7          6           0        0.638277   -0.559798    0.161905
      8          1           0       -1.430644    2.023455    0.098277
      9          1           0        0.478346   -1.593565    0.430148
 ---------------------------------------------------------------------
 Rotational constants (GHZ):           9.2880785           1.4364308           1.2500049
 Standard basis: def2TZVP (5D, 7F)
 There are   264 symmetry adapted cartesian basis functions of A   symmetry.
 There are   229 symmetry adapted basis functions of A   symmetry.
   229 basis functions,   373 primitive gaussians,   264 cartesian basis functions
    25 alpha electrons       25 beta electrons
       nuclear repulsion energy       256.8842442772 Hartrees.
 NAtoms=    9 NActive=    9 NUniq=    9 SFac= 1.00D+00 NAtFMM=   60 NAOKFM=F Big=F
 Integral buffers will be    131072 words long.
 Raffenetti 2 integral format.
 Two-electron integral symmetry is turned on.
 Nuclear repulsion after empirical dispersion term =      256.8817151575 Hartrees.
 One-electron integrals computed using PRISM.
   1 Symmetry operations used in ECPInt.
 ECPInt:  NShTT=    3655 NPrTT=   11788 LenC2=    3521 LenP2D=    9055.
 LDataN:  DoStor=T MaxTD1= 6 Len=  172
 NBasis=   229 RedAO= T EigKep=  1.80D-04  NBF=   229
 NBsUse=   229 1.00D-06 EigRej= -1.00D+00 NBFU=   229
 ExpMin= 9.52D-02 ExpMax= 2.70D+04 ExpMxC= 9.22D+02 IAcc=3 IRadAn=         5 AccDes= 0.00D+00
 Harris functional with IExCor= 4639 and IRadAn=       5 diagonalized for initial guess.
 HarFok:  IExCor= 4639 AccDes= 0.00D+00 IRadAn=         5 IDoV= 1 UseB2=F ITyADJ=14
 ICtDFT=  3500011 ScaDFX=  1.000000  1.000000  1.000000  1.000000
 FoFCou: FMM=F IPFlag=           0 FMFlag=      100000 FMFlg1=           0
         NFxFlg=           0 DoJE=T BraDBF=F KetDBF=T FulRan=T
         wScrn=  0.000000 ICntrl=       500 IOpCl=  0 I1Cent=   200000004 NGrid=           0
         NMat0=    1 NMatS0=      1 NMatT0=    0 NMatD0=    1 NMtDS0=    0 NMtDT0=    0
 Petite list used in FoFCou.
 Initial guess <Sx>= 0.0000 <Sy>= 0.0000 <Sz>= 0.0000 <S**2>=-0.0000 S=-0.0000
 Requested convergence on RMS density matrix=1.00D-08 within 128 cycles.
 Requested convergence on MAX density matrix=1.00D-06.
 Requested convergence on             energy=1.00D-06.
 No special actions if energy rises.
 Integral accuracy reduced to 1.0D-05 until final iterations.
 Initial convergence to 1.0D-05 achieved.  Increase integral accuracy.
 SCF Done:  E(UwB97XD) =  -371.400813946     A.U. after   27 cycles
            NFock= 27  Conv=0.58D-08     -V/T= 2.0035
 <Sx>= 0.0000 <Sy>= 0.0000 <Sz>= 0.0000 <S**2>=-0.0000 S=-0.0000
 <L.S>=  0.00000000000    
 Annihilation of the first spin contaminant:
 S**2 before annihilation    -0.0000,   after     0.0000

 **********************************************************************

            Population analysis using the SCF density.

 **********************************************************************

 Orbital symmetries:
 Alpha Orbitals:
       Occupied  (A) (A) (A) (A) (A) (A) (A) (A) (A) (A) (A) (A)
                 (A) (A) (A) (A) (A) (A) (A) (A) (A) (A) (A) (A)
                 (A)
       Virtual   (A) (A) (A) (A) (A) (A) (A) (A) (A) (A) (A) (A)
                 (A) (A) (A) (A) (A) (A) (A) (A) (A) (A) (A) (A)
                 (A) (A) (A) (A) (A) (A) (A) (A) (A) (A) (A) (A)
                 (A) (A) (A) (A) (A) (A) (A) (A) (A) (A) (A) (A)
                 (A) (A) (A) (A) (A) (A) (A) (A) (A) (A) (A) (A)
                 (A) (A) (A) (A) (A) (A) (A) (A) (A) (A) (A) (A)
                 (A) (A) (A) (A) (A) (A) (A) (A) (A) (A) (A) (A)
                 (A) (A) (A) (A) (A) (A) (A) (A) (A) (A) (A) (A)
                 (A) (A) (A) (A) (A) (A) (A) (A) (A) (A) (A) (A)
                 (A) (A) (A) (A) (A) (A) (A) (A) (A) (A) (A) (A)
                 (A) (A) (A) (A) (A) (A) (A) (A) (A) (A) (A) (A)
                 (A) (A) (A) (A) (A) (A) (A) (A) (A) (A) (A) (A)
                 (A) (A) (A) (A) (A) (A) (A) (A) (A) (A) (A) (A)
                 (A) (A) (A) (A) (A) (A) (A) (A) (A) (A) (A) (A)
                 (A) (A) (A) (A) (A) (A) (A) (A) (A) (A) (A) (A)
                 (A) (A) (A) (A) (A) (A) (A) (A) (A) (A) (A) (A)
                 (A) (A) (A) (A) (A) (A) (A) (A) (A) (A) (A) (A)
 Beta  Orbitals:
       Occupied  (A) (A) (A) (A) (A) (A) (A) (A) (A) (A) (A) (A)
                 (A) (A) (A) (A) (A) (A) (A) (A) (A) (A) (A) (A)
                 (A)
       Virtual   (A) (A) (A) (A) (A) (A) (A) (A) (A) (A) (A) (A)
                 (A) (A) (A) (A) (A) (A) (A) (A) (A) (A) (A) (A)
                 (A) (A) (A) (A) (A) (A) (A) (A) (A) (A) (A) (A)
                 (A) (A) (A) (A) (A) (A) (A) (A) (A) (A) (A) (A)
                 (A) (A) (A) (A) (A) (A) (A) (A) (A) (A) (A) (A)
                 (A) (A) (A) (A) (A) (A) (A) (A) (A) (A) (A) (A)
                 (A) (A) (A) (A) (A) (A) (A) (A) (A) (A) (A) (A)
                 (A) (A) (A) (A) (A) (A) (A) (A) (A) (A) (A) (A)
                 (A) (A) (A) (A) (A) (A) (A) (A) (A) (A) (A) (A)
                 (A) (A) (A) (A) (A) (A) (A) (A) (A) (A) (A) (A)
                 (A) (A) (A) (A) (A) (A) (A) (A) (A) (A) (A) (A)
                 (A) (A) (A) (A) (A) (A) (A) (A) (A) (A) (A) (A)
                 (A) (A) (A) (A) (A) (A) (A) (A) (A) (A) (A) (A)
                 (A) (A) (A) (A) (A) (A) (A) (A) (A) (A) (A) (A)
                 (A) (A) (A) (A) (A) (A) (A) (A) (A) (A) (A) (A)
                 (A) (A) (A) (A) (A) (A) (A) (A) (A) (A) (A) (A)
                 (A) (A) (A) (A) (A) (A) (A) (A) (A) (A) (A) (A)
 The electronic state is 1-A.
 Alpha  occ. eigenvalues --  -19.29951 -14.63516 -14.59568 -14.55233 -14.43989
 Alpha  occ. eigenvalues --  -10.41877 -10.35013  -1.28632  -1.26573  -1.07417
 Alpha  occ. eigenvalues --   -0.97686  -0.92731  -0.74145  -0.66895  -0.64389
 Alpha  occ. eigenvalues --   -0.63623  -0.62002  -0.60010  -0.57572  -0.56921
 Alpha  occ. eigenvalues --   -0.49508  -0.45795  -0.39140  -0.33785  -0.24545
 Alpha virt. eigenvalues --   -0.08928  -0.04522   0.03434   0.10376   0.14117
 Alpha virt. eigenvalues --    0.15113   0.18207   0.18953   0.24338   0.27198
 Alpha virt. eigenvalues --    0.28586   0.30097   0.31985   0.32736   0.34035
 Alpha virt. eigenvalues --    0.35703   0.38382   0.40168   0.41604   0.44593
 Alpha virt. eigenvalues --    0.45563   0.46509   0.48294   0.49106   0.51063
 Alpha virt. eigenvalues --    0.53501   0.54380   0.55044   0.55421   0.57376
 Alpha virt. eigenvalues --    0.58054   0.60063   0.61641   0.65005   0.65620
 Alpha virt. eigenvalues --    0.68061   0.70570   0.73522   0.78458   0.79635
 Alpha virt. eigenvalues --    0.81032   0.83130   0.85636   0.90295   0.92082
 Alpha virt. eigenvalues --    0.97594   1.00258   1.02068   1.05245   1.11199
 Alpha virt. eigenvalues --    1.11630   1.14980   1.19704   1.25997   1.28600
 Alpha virt. eigenvalues --    1.30253   1.32108   1.34033   1.38817   1.43604
 Alpha virt. eigenvalues --    1.44185   1.47103   1.50786   1.51036   1.53439
 Alpha virt. eigenvalues --    1.55810   1.58395   1.61733   1.66073   1.66492
 Alpha virt. eigenvalues --    1.69822   1.71562   1.75989   1.78381   1.82020
 Alpha virt. eigenvalues --    1.84034   1.89211   1.90248   1.91461   1.97200
 Alpha virt. eigenvalues --    2.01611   2.05282   2.07667   2.12203   2.13125
 Alpha virt. eigenvalues --    2.14878   2.19118   2.23663   2.24879   2.26242
 Alpha virt. eigenvalues --    2.28452   2.34828   2.37723   2.39495   2.43828
 Alpha virt. eigenvalues --    2.47414   2.47971   2.56274   2.61461   2.64303
 Alpha virt. eigenvalues --    2.66413   2.71070   2.75435   2.82602   2.85943
 Alpha virt. eigenvalues --    2.89858   2.93333   2.96285   2.97886   2.99878
 Alpha virt. eigenvalues --    3.03507   3.08310   3.11767   3.14158   3.16193
 Alpha virt. eigenvalues --    3.20212   3.22642   3.25389   3.29016   3.37826
 Alpha virt. eigenvalues --    3.38314   3.42684   3.47642   3.50361   3.56046
 Alpha virt. eigenvalues --    3.58566   3.62650   3.65060   3.70606   3.73601
 Alpha virt. eigenvalues --    3.74939   3.78407   3.78833   3.83960   3.86602
 Alpha virt. eigenvalues --    3.89786   3.97855   4.04502   4.04685   4.07873
 Alpha virt. eigenvalues --    4.13456   4.20045   4.22160   4.29269   4.30984
 Alpha virt. eigenvalues --    4.37694   4.38602   4.42342   4.44463   4.49339
 Alpha virt. eigenvalues --    4.51128   4.56551   4.60840   4.63571   4.65884
 Alpha virt. eigenvalues --    4.71152   4.72872   4.76435   4.77634   4.78829
 Alpha virt. eigenvalues --    4.82741   4.86229   4.92334   4.93142   4.97097
 Alpha virt. eigenvalues --    5.04418   5.05747   5.08882   5.11438   5.13115
 Alpha virt. eigenvalues --    5.15141   5.20950   5.23844   5.24995   5.27163
 Alpha virt. eigenvalues --    5.38695   5.40270   5.46276   5.56017   5.59843
 Alpha virt. eigenvalues --    5.73310   5.79209   5.81310   5.89498   6.03017
 Alpha virt. eigenvalues --    6.35457   6.36162   6.41003   6.55706   6.60555
 Alpha virt. eigenvalues --    6.64065   6.76136   6.91658   7.04817   7.17467
 Alpha virt. eigenvalues --    7.36802   7.42648  22.91553  23.32921  31.74011
 Alpha virt. eigenvalues --   32.08518  32.61646  32.97933  44.19623
  Beta  occ. eigenvalues --  -19.29951 -14.63516 -14.59568 -14.55233 -14.43989
  Beta  occ. eigenvalues --  -10.41877 -10.35013  -1.28632  -1.26573  -1.07417
  Beta  occ. eigenvalues --   -0.97686  -0.92731  -0.74145  -0.66895  -0.64389
  Beta  occ. eigenvalues --   -0.63623  -0.62002  -0.60010  -0.57572  -0.56921
  Beta  occ. eigenvalues --   -0.49508  -0.45795  -0.39140  -0.33785  -0.24545
  Beta virt. eigenvalues --   -0.08928  -0.04522   0.03434   0.10376   0.14117
  Beta virt. eigenvalues --    0.15113   0.18207   0.18953   0.24338   0.27198
  Beta virt. eigenvalues --    0.28586   0.30097   0.31985   0.32736   0.34035
  Beta virt. eigenvalues --    0.35703   0.38382   0.40168   0.41604   0.44593
  Beta virt. eigenvalues --    0.45563   0.46509   0.48294   0.49106   0.51063
  Beta virt. eigenvalues --    0.53501   0.54380   0.55044   0.55421   0.57376
  Beta virt. eigenvalues --    0.58054   0.60063   0.61641   0.65005   0.65620
  Beta virt. eigenvalues --    0.68061   0.70570   0.73522   0.78458   0.79635
  Beta virt. eigenvalues --    0.81032   0.83130   0.85636   0.90295   0.92082
  Beta virt. eigenvalues --    0.97594   1.00258   1.02068   1.05245   1.11199
  Beta virt. eigenvalues --    1.11630   1.14980   1.19704   1.25997   1.28600
  Beta virt. eigenvalues --    1.30253   1.32108   1.34033   1.38817   1.43604
  Beta virt. eigenvalues --    1.44185   1.47103   1.50786   1.51036   1.53439
  Beta virt. eigenvalues --    1.55810   1.58395   1.61733   1.66073   1.66492
  Beta virt. eigenvalues --    1.69822   1.71562   1.75989   1.78381   1.82020
  Beta virt. eigenvalues --    1.84034   1.89211   1.90248   1.91461   1.97200
  Beta virt. eigenvalues --    2.01611   2.05282   2.07667   2.12203   2.13125
  Beta virt. eigenvalues --    2.14878   2.19118   2.23663   2.24879   2.26242
  Beta virt. eigenvalues --    2.28452   2.34828   2.37723   2.39495   2.43828
  Beta virt. eigenvalues --    2.47414   2.47971   2.56274   2.61461   2.64303
  Beta virt. eigenvalues --    2.66413   2.71070   2.75435   2.82602   2.85943
  Beta virt. eigenvalues --    2.89858   2.93333   2.96285   2.97886   2.99878
  Beta virt. eigenvalues --    3.03507   3.08310   3.11767   3.14158   3.16193
  Beta virt. eigenvalues --    3.20212   3.22642   3.25389   3.29016   3.37826
  Beta virt. eigenvalues --    3.38314   3.42684   3.47642   3.50361   3.56046
  Beta virt. eigenvalues --    3.58566   3.62650   3.65060   3.70606   3.73601
  Beta virt. eigenvalues --    3.74939   3.78407   3.78833   3.83960   3.86602
  Beta virt. eigenvalues --    3.89786   3.97855   4.04502   4.04685   4.07873
  Beta virt. eigenvalues --    4.13456   4.20045   4.22160   4.29269   4.30984
  Beta virt. eigenvalues --    4.37694   4.38602   4.42342   4.44463   4.49339
  Beta virt. eigenvalues --    4.51128   4.56551   4.60840   4.63571   4.65884
  Beta virt. eigenvalues --    4.71152   4.72872   4.76435   4.77634   4.78829
  Beta virt. eigenvalues --    4.82741   4.86229   4.92334   4.93142   4.97097
  Beta virt. eigenvalues --    5.04418   5.05747   5.08882   5.11438   5.13115
  Beta virt. eigenvalues --    5.15141   5.20950   5.23844   5.24995   5.27163
  Beta virt. eigenvalues --    5.38695   5.40270   5.46276   5.56017   5.59843
  Beta virt. eigenvalues --    5.73310   5.79209   5.81310   5.89498   6.03017
  Beta virt. eigenvalues --    6.35457   6.36162   6.41003   6.55706   6.60555
  Beta virt. eigenvalues --    6.64065   6.76136   6.91658   7.04817   7.17467
  Beta virt. eigenvalues --    7.36802   7.42648  22.91553  23.32921  31.74011
  Beta virt. eigenvalues --   32.08518  32.61646  32.97933  44.19623
          Condensed to atoms (all electrons):
               1          2          3          4          5          6
     1  N    6.540352   0.681404  -0.084862  -0.001710  -0.000992   0.001444
     2  C    0.681404   4.800673   0.317204  -0.053357   0.005030  -0.083505
     3  N   -0.084862   0.317204   6.283952   0.400827  -0.000144   0.000861
     4  N   -0.001710  -0.053357   0.400827   6.703168  -0.000001   0.000617
     5  O   -0.000992   0.005030  -0.000144  -0.000001   8.103740   0.247066
     6  N    0.001444  -0.083505   0.000861   0.000617   0.247066   6.090225
     7  C   -0.096699   0.279338  -0.048938   0.005800  -0.067919   0.577372
     8  H    0.346704  -0.060142  -0.010884   0.001132   0.000019   0.000056
     9  H   -0.002354  -0.136856   0.022140   0.004306   0.004229  -0.028437
               7          8          9
     1  N   -0.096699   0.346704  -0.002354
     2  C    0.279338  -0.060142  -0.136856
     3  N   -0.048938  -0.010884   0.022140
     4  N    0.005800   0.001132   0.004306
     5  O   -0.067919   0.000019   0.004229
     6  N    0.577372   0.000056  -0.028437
     7  C    5.076759   0.014996   0.429623
     8  H    0.014996   0.487868  -0.000334
     9  H    0.429623  -0.000334   0.587190
          Atomic-Atomic Spin Densities.
               1          2          3          4          5          6
     1  N    0.000000  -0.000000  -0.000000   0.000000  -0.000000   0.000000
     2  C   -0.000000   0.000000   0.000000  -0.000000  -0.000000   0.000000
     3  N   -0.000000   0.000000   0.000000  -0.000000   0.000000  -0.000000
     4  N    0.000000  -0.000000  -0.000000   0.000000  -0.000000   0.000000
     5  O   -0.000000  -0.000000   0.000000  -0.000000  -0.000000   0.000000
     6  N    0.000000   0.000000  -0.000000   0.000000   0.000000  -0.000000
     7  C   -0.000000  -0.000000   0.000000   0.000000   0.000000  -0.000000
     8  H    0.000000   0.000000  -0.000000   0.000000   0.000000  -0.000000
     9  H   -0.000000   0.000000  -0.000000  -0.000000  -0.000000   0.000000
               7          8          9
     1  N   -0.000000   0.000000  -0.000000
     2  C   -0.000000   0.000000   0.000000
     3  N    0.000000  -0.000000  -0.000000
     4  N    0.000000   0.000000  -0.000000
     5  O    0.000000   0.000000  -0.000000
     6  N   -0.000000  -0.000000   0.000000
     7  C   -0.000000  -0.000000   0.000000
     8  H   -0.000000  -0.000000  -0.000000
     9  H    0.000000  -0.000000  -0.000000
 Mulliken charges and spin densities:
               1          2
     1  N   -0.383287   0.000000
     2  C    0.250209   0.000000
     3  N    0.119844   0.000000
     4  N   -0.060782   0.000000
     5  O   -0.291029  -0.000000
     6  N    0.194301  -0.000000
     7  C   -0.170333  -0.000000
     8  H    0.220584  -0.000000
     9  H    0.120492  -0.000000
 Sum of Mulliken charges =  -0.00000  -0.00000
 Mulliken charges and spin densities with hydrogens summed into heavy atoms:
               1          2
     1  N   -0.162703   0.000000
     2  C    0.250209   0.000000
     3  N    0.119844   0.000000
     4  N   -0.060782   0.000000
     5  O   -0.291029  -0.000000
     6  N    0.194301  -0.000000
     7  C   -0.049841  -0.000000
 Electronic spatial extent (au):  <R**2>=            830.6128
 Charge=             -0.0000 electrons
 Dipole moment (field-independent basis, Debye):
    X=             -4.4586    Y=             -1.7206    Z=              0.4712  Tot=              4.8023
 Quadrupole moment (field-independent basis, Debye-Ang):
   XX=            -44.7873   YY=            -38.1435   ZZ=            -39.2669
   XY=             -3.1238   XZ=              0.1340   YZ=              0.1126
 Traceless Quadrupole moment (field-independent basis, Debye-Ang):
   XX=             -4.0548   YY=              2.5890   ZZ=              1.4657
   XY=             -3.1238   XZ=              0.1340   YZ=              0.1126
 Octapole moment (field-independent basis, Debye-Ang**2):
  XXX=            -20.7166  YYY=             -5.0343  ZZZ=             -0.5077  XYY=             -4.1707
  XXY=              8.3048  XXZ=              1.5936  XZZ=              1.2525  YZZ=             -1.0350
  YYZ=              0.8792  XYZ=              0.5155
 Hexadecapole moment (field-independent basis, Debye-Ang**3):
 XXXX=           -916.7204 YYYY=           -169.6513 ZZZZ=            -40.0359 XXXY=            -15.7716
 XXXZ=             -1.9588 YYYX=            -15.7410 YYYZ=              0.0482 ZZZX=             -0.6836
 ZZZY=              0.8290 XXYY=           -150.6912 XXZZ=           -140.4711 YYZZ=            -37.6982
 XXYZ=              2.1828 YYXZ=             -0.8848 ZZXY=             -0.3288
 N-N= 2.568817151575D+02 E-N=-1.382402472717D+03  KE= 3.700882384388D+02
                          Isotropic Fermi Contact Couplings
        Atom                 a.u.       MegaHertz       Gauss      10(-4) cm-1
     1  N(14)              0.00000       0.00000       0.00000       0.00000
     2  C(13)             -0.00000      -0.00000      -0.00000      -0.00000
     3  N(14)              0.00000       0.00000       0.00000       0.00000
     4  N(14)              0.00000       0.00000       0.00000       0.00000
     5  O(17)             -0.00000       0.00000       0.00000       0.00000
     6  N(14)             -0.00000      -0.00000      -0.00000      -0.00000
     7  C(13)             -0.00000      -0.00000      -0.00000      -0.00000
     8  H(1)              -0.00000      -0.00000      -0.00000      -0.00000
     9  H(1)              -0.00000      -0.00000      -0.00000      -0.00000
 --------------------------------------------------------
       Center         ----  Spin Dipole Couplings  ----
                      3XX-RR        3YY-RR        3ZZ-RR
 --------------------------------------------------------
     1   Atom       -0.000000     -0.000000      0.000000
     2   Atom       -0.000000     -0.000000      0.000000
     3   Atom       -0.000000     -0.000000      0.000000
     4   Atom       -0.000000     -0.000000      0.000000
     5   Atom        0.000000     -0.000000      0.000000
     6   Atom        0.000000     -0.000000      0.000000
     7   Atom       -0.000000      0.000000     -0.000000
     8   Atom        0.000000     -0.000000     -0.000000
     9   Atom        0.000000     -0.000000      0.000000
 --------------------------------------------------------
                        XY            XZ            YZ
 --------------------------------------------------------
     1   Atom        0.000000      0.000000     -0.000000
     2   Atom        0.000000      0.000000      0.000000
     3   Atom        0.000000     -0.000000      0.000000
     4   Atom        0.000000     -0.000000     -0.000000
     5   Atom        0.000000     -0.000000      0.000000
     6   Atom        0.000000     -0.000000      0.000000
     7   Atom       -0.000000      0.000000      0.000000
     8   Atom       -0.000000     -0.000000      0.000000
     9   Atom       -0.000000      0.000000      0.000000
 --------------------------------------------------------


 ---------------------------------------------------------------------------------
              Anisotropic Spin Dipole Couplings in Principal Axis System
 ---------------------------------------------------------------------------------

       Atom             a.u.   MegaHertz   Gauss  10(-4) cm-1        Axes

              Baa    -0.0000    -0.000    -0.000    -0.000  0.8998 -0.4338 -0.0461
     1 N(14)  Bbb    -0.0000    -0.000    -0.000    -0.000  0.4341  0.9008 -0.0041
              Bcc     0.0000     0.000     0.000     0.000  0.0433 -0.0163  0.9989
 
              Baa    -0.0000    -0.000    -0.000    -0.000  0.8973 -0.4041 -0.1776
     2 C(13)  Bbb    -0.0000    -0.000    -0.000    -0.000  0.2688  0.8194 -0.5063
              Bcc     0.0000     0.000     0.000     0.000  0.3501  0.4066  0.8439
 
              Baa    -0.0000    -0.000    -0.000    -0.000 -0.2934  0.9558 -0.0166
     3 N(14)  Bbb    -0.0000    -0.000    -0.000    -0.000  0.9559  0.2936  0.0073
              Bcc     0.0000     0.000     0.000     0.000 -0.0119  0.0137  0.9998
 
              Baa    -0.0000    -0.000    -0.000    -0.000  0.9953 -0.0484  0.0839
     4 N(14)  Bbb    -0.0000    -0.000    -0.000    -0.000  0.0444  0.9978  0.0492
              Bcc     0.0000     0.000     0.000     0.000 -0.0861 -0.0453  0.9953
 
              Baa    -0.0000     0.000     0.000     0.000 -0.0857  0.9777 -0.1918
     5 O(17)  Bbb     0.0000    -0.000    -0.000    -0.000  0.9933  0.0988  0.0601
              Bcc     0.0000    -0.000    -0.000    -0.000 -0.0777  0.1853  0.9796
 
              Baa    -0.0000    -0.000    -0.000    -0.000 -0.1194  0.9384 -0.3242
     6 N(14)  Bbb     0.0000     0.000     0.000     0.000  0.9828  0.0652 -0.1730
              Bcc     0.0000     0.000     0.000     0.000  0.1412  0.3393  0.9300
 
              Baa    -0.0000    -0.000    -0.000    -0.000 -0.6745 -0.1641  0.7198
     7 C(13)  Bbb     0.0000     0.000     0.000     0.000  0.5671  0.5091  0.6475
              Bcc     0.0000     0.000     0.000     0.000 -0.4727  0.8449 -0.2503
 
              Baa    -0.0000    -0.000    -0.000    -0.000  0.4854  0.8735 -0.0385
     8 H(1)   Bbb    -0.0000    -0.000    -0.000    -0.000  0.0404  0.0216  0.9990
              Bcc     0.0000     0.000     0.000     0.000  0.8734 -0.4864 -0.0248
 
              Baa    -0.0000    -0.000    -0.000    -0.000  0.4778  0.8665 -0.1447
     9 H(1)   Bbb     0.0000     0.000     0.000     0.000 -0.3371  0.3330  0.8806
              Bcc     0.0000     0.000     0.000     0.000  0.8112 -0.3720  0.4512
 

 ---------------------------------------------------------------------------------

 1\1\GINC-NODE305\SP\UwB97XD\def2TZVP\C2H2N4O1\MHARRIS\22-Jun-2021\0\\#
  UwB97XD/Def2TZVP\\something title\\0,1\N,0,-0.501101,-0.168108,-1.285
 926\C,0,-0.443491,-0.879384,-0.212358\N,0,-1.544462,-1.133404,0.502448
 \N,0,-2.633031,-1.314918,0.760796\O,0,3.061075,-1.374484,-0.288559\N,0
 ,1.871792,-1.315861,-0.267312\C,0,0.818108,-1.254064,0.41702\H,0,-1.41
 4204,0.191533,-1.553947\H,0,0.761389,-1.563276,1.450159\\Version=ES64L
 -G16RevA.03\State=1-A\HF=-371.4008139\S2=0.\S2-1=0.\S2A=0.\RMSD=5.759e
 -09\Dipole=-1.670091,-0.0876902,0.8791123\Quadrupole=-2.60088,1.528746
 3,1.0721338,-0.9107265,2.501255,-0.4356561\PG=C01 [X(C2H2N4O1)]\\@


     "IF I COULD JUST GET IT ON PAPER"
 LIFE AND INK, THEY RUN OUT AT THE SAME TIME,
 OR SO SAID MY OLD FRIEND THE SQUID.
     -- JIMMY BUFFETT, 1981
 Job cpu time:       0 days  0 hours 23 minutes 42.5 seconds.
 Elapsed time:       0 days  0 hours  5 minutes 56.3 seconds.
 File lengths (MBytes):  RWF=     54 Int=      0 D2E=      0 Chk=      5 Scr=      1
 Normal termination of Gaussian 16 at Tue Jun 22 16:49:41 2021.
