 Entering Gaussian System, Link 0=/software/kemi/g16/avx2/g16/g16
 Initial command:
 /software/kemi/g16/avx2/g16/l1.exe "/scratch/23935644/Gau-2510.inp" -scrdir="/scratch/23935644/"
 Entering Link 1 = /software/kemi/g16/avx2/g16/l1.exe PID=      2511.
  
 Copyright (c) 1988,1990,1992,1993,1995,1998,2003,2009,2016,
            Gaussian, Inc.  All Rights Reserved.
  
 This is part of the Gaussian(R) 16 program.  It is based on
 the Gaussian(R) 09 system (copyright 2009, Gaussian, Inc.),
 the Gaussian(R) 03 system (copyright 2003, Gaussian, Inc.),
 the Gaussian(R) 98 system (copyright 1998, Gaussian, Inc.),
 the Gaussian(R) 94 system (copyright 1995, Gaussian, Inc.),
 the Gaussian 92(TM) system (copyright 1992, Gaussian, Inc.),
 the Gaussian 90(TM) system (copyright 1990, Gaussian, Inc.),
 the Gaussian 88(TM) system (copyright 1988, Gaussian, Inc.),
 the Gaussian 86(TM) system (copyright 1986, Carnegie Mellon
 University), and the Gaussian 82(TM) system (copyright 1983,
 Carnegie Mellon University). Gaussian is a federally registered
 trademark of Gaussian, Inc.
  
 This software contains proprietary and confidential information,
 including trade secrets, belonging to Gaussian, Inc.
  
 This software is provided under written license and may be
 used, copied, transmitted, or stored only in accord with that
 written license.
  
 The following legend is applicable only to US Government
 contracts under FAR:
  
                    RESTRICTED RIGHTS LEGEND
  
 Use, reproduction and disclosure by the US Government is
 subject to restrictions as set forth in subparagraphs (a)
 and (c) of the Commercial Computer Software - Restricted
 Rights clause in FAR 52.227-19.
  
 Gaussian, Inc.
 340 Quinnipiac St., Bldg. 40, Wallingford CT 06492
  
  
 ---------------------------------------------------------------
 Warning -- This program may not be used in any manner that
 competes with the business of Gaussian, Inc. or will provide
 assistance to any competitor of Gaussian, Inc.  The licensee
 of this program is prohibited from giving any competitor of
 Gaussian, Inc. access to this program.  By using this program,
 the user acknowledges that Gaussian, Inc. is engaged in the
 business of creating and licensing software in the field of
 computational chemistry and represents and warrants to the
 licensee that it is not a competitor of Gaussian, Inc. and that
 it will not use this program in any manner prohibited above.
 ---------------------------------------------------------------
  

 Cite this work as:
 Gaussian 16, Revision A.03,
 M. J. Frisch, G. W. Trucks, H. B. Schlegel, G. E. Scuseria, 
 M. A. Robb, J. R. Cheeseman, G. Scalmani, V. Barone, 
 G. A. Petersson, H. Nakatsuji, X. Li, M. Caricato, A. V. Marenich, 
 J. Bloino, B. G. Janesko, R. Gomperts, B. Mennucci, H. P. Hratchian, 
 J. V. Ortiz, A. F. Izmaylov, J. L. Sonnenberg, D. Williams-Young, 
 F. Ding, F. Lipparini, F. Egidi, J. Goings, B. Peng, A. Petrone, 
 T. Henderson, D. Ranasinghe, V. G. Zakrzewski, J. Gao, N. Rega, 
 G. Zheng, W. Liang, M. Hada, M. Ehara, K. Toyota, R. Fukuda, 
 J. Hasegawa, M. Ishida, T. Nakajima, Y. Honda, O. Kitao, H. Nakai, 
 T. Vreven, K. Throssell, J. A. Montgomery, Jr., J. E. Peralta, 
 F. Ogliaro, M. J. Bearpark, J. J. Heyd, E. N. Brothers, K. N. Kudin, 
 V. N. Staroverov, T. A. Keith, R. Kobayashi, J. Normand, 
 K. Raghavachari, A. P. Rendell, J. C. Burant, S. S. Iyengar, 
 J. Tomasi, M. Cossi, J. M. Millam, M. Klene, C. Adamo, R. Cammi, 
 J. W. Ochterski, R. L. Martin, K. Morokuma, O. Farkas, 
 J. B. Foresman, and D. J. Fox, Gaussian, Inc., Wallingford CT, 2016.
 
 ******************************************
 Gaussian 16:  ES64L-G16RevA.03 25-Dec-2016
                24-Jun-2021 
 ******************************************
 %nprocshared=4
 Will use up to    4 processors via shared memory.
 %mem=8GB
 -----------------------------------------------------------------
 #irc=(reverse, calcfc, maxpoint=100, stepsize=5) UwB97XD/Def2TZVP
 -----------------------------------------------------------------
 1/10=4,18=10,22=2,26=3,38=1,39=5,42=100,44=3,172=1/1,23;
 2/12=2,17=6,18=5,29=1,40=1/2;
 3/5=44,7=101,11=2,25=1,30=1,71=2,74=-58,116=2,140=1/1,2,3;
 4//1;
 5/5=2,38=5/2;
 8/6=4,10=90,11=11/1;
 11/6=1,8=1,9=11,15=111,16=1/1,2,10;
 10/6=1,13=1/2;
 6/7=2,8=2,9=2,10=2,28=1/1;
 7/10=1,18=20,25=1/1,2,3,16;
 1/10=4,18=10,22=2,26=3,39=5,42=100,44=3/23(2);
 2/29=1/2;
 99/5=20/99;
 2/29=1/2;
 3/5=44,7=101,11=2,25=1,30=1,71=2,74=-58,116=2,140=1/1,2,3;
 4/5=5,16=3,69=1/1;
 5/5=2,38=5/2;
 8/6=4,10=90,11=11/1;
 11/6=1,8=1,9=11,15=111,16=1/1,2,10;
 10/6=1,13=1/2;
 7/10=1,18=20,25=1/1,2,3,16;
 1/18=10,22=2,26=3,39=5,42=100,44=3/23(-8);
 2/29=1/2;
 6/7=2,8=2,9=2,10=2,19=2,28=1/1;
 99/5=20,9=1/99;
 ---------------
 something title
 ---------------
 Symbolic Z-matrix:
 Charge =  0 Multiplicity = 1
 N                    -0.43518   2.31935  -0.03234 
 C                    -0.99198   1.29834   0.01265 
 N                     2.54041   0.18444   0.01489 
 N                     2.99117  -0.80533   0.01436 
 O                    -1.42865  -2.06909  -0.01431 
 N                    -0.83375  -1.0095   -0.05995 
 C                    -1.63173   0.11482   0.06062 
 H                     0.03941   3.18961  -0.07069 
 H                    -2.70649   0.06141   0.18682 
 
 IRC-IRC-IRC-IRC-IRC-IRC-IRC-IRC-IRC-IRC-IRC-IRC-IRC-IRC-IRC-IRC-IRC-IRC
 ------------------------------------------------------------------------
 INPUT DATA FOR L123
 ------------------------------------------------------------------------
 GENERAL PARAMETERS:
 Rxn path following direction = Reverse
 Maximum points per path      = 100
 Step size                    =   0.050 bohr
 Integration scheme           = HPC                                 
    Redo corrector integration= Yes                                 
    DWI Weight Power          =  2
    DWI will use Hessian update vectors when possible.
    Max correction cycles     =  20
 Initial Hessian              = CalcFC
 Hessian evaluation           = All updating
 Hessian updating method      = Bofill                              
 ------------------------------------------------------------------------
 IRC-IRC-IRC-IRC-IRC-IRC-IRC-IRC-IRC-IRC-IRC-IRC-IRC-IRC-IRC-IRC-IRC-IRC
                          Input orientation:                          
 ---------------------------------------------------------------------
 Center     Atomic      Atomic             Coordinates (Angstroms)
 Number     Number       Type             X           Y           Z
 ---------------------------------------------------------------------
      1          7           0       -0.435180    2.319350   -0.032340
      2          6           0       -0.991980    1.298340    0.012650
      3          7           0        2.540410    0.184440    0.014890
      4          7           0        2.991170   -0.805330    0.014360
      5          8           0       -1.428650   -2.069090   -0.014310
      6          7           0       -0.833750   -1.009500   -0.059950
      7          6           0       -1.631730    0.114820    0.060620
      8          1           0        0.039410    3.189610   -0.070690
      9          1           0       -2.706490    0.061410    0.186820
 ---------------------------------------------------------------------
                    Distance matrix (angstroms):
                    1          2          3          4          5
     1  N    0.000000
     2  C    1.163835   0.000000
     3  N    3.662541   3.703857   0.000000
     4  N    4.637422   4.504544   1.087580   0.000000
     5  O    4.499524   3.395731   4.564284   4.597034   0.000000
     6  N    3.352740   2.314397   3.579951   3.831086   1.216026
     7  C    2.510045   1.346217   4.172971   4.713812   2.194611
     8  H    0.991997   2.155832   3.910674   4.967863   5.460065
     9  H    3.210167   2.121291   5.251158   5.765788   2.492460
                    6          7          8          9
     6  N    0.000000
     7  C    1.383981   0.000000
     8  H    4.288945   3.502040   0.000000
     9  H    2.171382   1.083461   4.170361   0.000000
 Symmetry turned off by external request.
 Stoichiometry    C2H2N4O
 Framework group  C1[X(C2H2N4O)]
 Deg. of freedom    21
 Full point group                 C1      NOp   1
 Rotational constants (GHZ):           2.5481675           1.6202147           0.9910698
 Standard basis: def2TZVP (5D, 7F)
   229 basis functions,   373 primitive gaussians,   264 cartesian basis functions
    25 alpha electrons       25 beta electrons
       nuclear repulsion energy       229.8523430398 Hartrees.
 NAtoms=    9 NActive=    9 NUniq=    9 SFac= 1.00D+00 NAtFMM=   60 NAOKFM=F Big=F
 Integral buffers will be    131072 words long.
 Raffenetti 2 integral format.
 Two-electron integral symmetry is turned off.
 Nuclear repulsion after empirical dispersion term =      229.8501447657 Hartrees.
 One-electron integrals computed using PRISM.
   1 Symmetry operations used in ECPInt.
 ECPInt:  NShTT=    3655 NPrTT=   11788 LenC2=    3469 LenP2D=    8577.
 LDataN:  DoStor=T MaxTD1= 6 Len=  172
 NBasis=   229 RedAO= T EigKep=  7.20D-05  NBF=   229
 NBsUse=   229 1.00D-06 EigRej= -1.00D+00 NBFU=   229
 ExpMin= 9.52D-02 ExpMax= 2.70D+04 ExpMxC= 9.22D+02 IAcc=3 IRadAn=         5 AccDes= 0.00D+00
 Harris functional with IExCor= 4639 and IRadAn=       5 diagonalized for initial guess.
 HarFok:  IExCor= 4639 AccDes= 0.00D+00 IRadAn=         5 IDoV= 1 UseB2=F ITyADJ=14
 ICtDFT=  3500011 ScaDFX=  1.000000  1.000000  1.000000  1.000000
 FoFCou: FMM=F IPFlag=           0 FMFlag=      100000 FMFlg1=           0
         NFxFlg=           0 DoJE=T BraDBF=F KetDBF=T FulRan=T
         wScrn=  0.000000 ICntrl=       500 IOpCl=  0 I1Cent=   200000004 NGrid=           0
         NMat0=    1 NMatS0=      1 NMatT0=    0 NMatD0=    1 NMtDS0=    0 NMtDT0=    0
 Symmetry not used in FoFCou.
 Initial guess <Sx>= 0.0000 <Sy>= 0.0000 <Sz>= 0.0000 <S**2>= 0.0000 S= 0.0000
 Requested convergence on RMS density matrix=1.00D-08 within 128 cycles.
 Requested convergence on MAX density matrix=1.00D-06.
 Requested convergence on             energy=1.00D-06.
 No special actions if energy rises.
 Integral accuracy reduced to 1.0D-05 until final iterations.
 Initial convergence to 1.0D-05 achieved.  Increase integral accuracy.
 SCF Done:  E(UwB97XD) =  -371.539787592     A.U. after   17 cycles
            NFock= 17  Conv=0.97D-08     -V/T= 2.0039
 <Sx>= 0.0000 <Sy>= 0.0000 <Sz>= 0.0000 <S**2>=-0.0000 S=-0.0000
 <L.S>=  0.00000000000    
 Annihilation of the first spin contaminant:
 S**2 before annihilation    -0.0000,   after     0.0000
 DoSCS=F DFT=T ScalE2(SS,OS)=  1.000000  1.000000
 Range of M.O.s used for correlation:     1   229
 NBasis=   229 NAE=    25 NBE=    25 NFC=     0 NFV=     0
 NROrb=    229 NOA=    25 NOB=    25 NVA=   204 NVB=   204

 **** Warning!!: The largest alpha MO coefficient is  0.27156438D+02


 **** Warning!!: The largest beta MO coefficient is  0.27156438D+02

   1 Symmetry operations used in ECPInt.
 ECPInt:  NShTT=    3655 NPrTT=   11788 LenC2=    3469 LenP2D=    8577.
 LDataN:  DoStor=T MaxTD1= 7 Len=  274
 Symmetrizing basis deriv contribution to polar:
 IMax=3 JMax=2 DiffMx= 0.00D+00
 G2DrvN: will do    10 centers at a time, making    1 passes.
 Calling FoFCou, ICntrl=  3107 FMM=F I1Cent=   0 AccDes= 0.00D+00.
 End of G2Drv F.D. properties file   721 does not exist.
 End of G2Drv F.D. properties file   722 does not exist.
 End of G2Drv F.D. properties file   788 does not exist.
          IDoAtm=111111111
          Differentiating once with respect to nuclear coordinates.
 CalDSu exits because no D1Ps are significant.
          There are    30 degrees of freedom in the 1st order CPHF.  IDoFFX=6 NUNeed=     0.
     24 vectors produced by pass  0 Test12= 3.40D-14 3.33D-09 XBig12= 1.53D-01 1.86D-01.
 AX will form    24 AO Fock derivatives at one time.
     24 vectors produced by pass  1 Test12= 3.40D-14 3.33D-09 XBig12= 1.35D-02 3.50D-02.
     24 vectors produced by pass  2 Test12= 3.40D-14 3.33D-09 XBig12= 4.96D-04 4.39D-03.
     24 vectors produced by pass  3 Test12= 3.40D-14 3.33D-09 XBig12= 7.66D-06 4.24D-04.
     24 vectors produced by pass  4 Test12= 3.40D-14 3.33D-09 XBig12= 1.09D-07 4.08D-05.
     24 vectors produced by pass  5 Test12= 3.40D-14 3.33D-09 XBig12= 1.12D-09 4.83D-06.
     24 vectors produced by pass  6 Test12= 3.40D-14 3.33D-09 XBig12= 8.41D-12 4.00D-07.
     18 vectors produced by pass  7 Test12= 3.40D-14 3.33D-09 XBig12= 5.10D-14 3.19D-08.
 InvSVY:  IOpt=1 It=  1 EMax= 1.44D-15
 Solved reduced A of dimension   186 with    24 vectors.
 End of Minotr F.D. properties file   721 does not exist.
 End of Minotr F.D. properties file   722 does not exist.
 End of Minotr F.D. properties file   788 does not exist.

 **********************************************************************

            Population analysis using the SCF density.

 **********************************************************************

 Alpha  occ. eigenvalues --  -19.25446 -14.52897 -14.52693 -14.52378 -14.51505
 Alpha  occ. eigenvalues --  -10.42184 -10.31663  -1.22623  -1.22149  -1.10129
 Alpha  occ. eigenvalues --   -0.92810  -0.79858  -0.73625  -0.63960  -0.61713
 Alpha  occ. eigenvalues --   -0.57700  -0.55198  -0.55101  -0.54712  -0.51788
 Alpha  occ. eigenvalues --   -0.50565  -0.50279  -0.47288  -0.32341  -0.28764
 Alpha virt. eigenvalues --    0.01392   0.02310   0.06356   0.06411   0.08668
 Alpha virt. eigenvalues --    0.13773   0.13910   0.17730   0.23075   0.27146
 Alpha virt. eigenvalues --    0.27485   0.28989   0.31961   0.32280   0.34999
 Alpha virt. eigenvalues --    0.36050   0.38423   0.38451   0.38997   0.42379
 Alpha virt. eigenvalues --    0.43626   0.47368   0.47936   0.48976   0.49386
 Alpha virt. eigenvalues --    0.50341   0.51112   0.52852   0.53486   0.55644
 Alpha virt. eigenvalues --    0.58762   0.59541   0.62519   0.62576   0.65917
 Alpha virt. eigenvalues --    0.67362   0.68140   0.71549   0.74134   0.77463
 Alpha virt. eigenvalues --    0.81075   0.83471   0.88103   0.89403   0.91715
 Alpha virt. eigenvalues --    0.92444   0.94365   1.00522   1.06586   1.09876
 Alpha virt. eigenvalues --    1.15667   1.18564   1.18819   1.19946   1.22931
 Alpha virt. eigenvalues --    1.25890   1.30473   1.31002   1.34235   1.36114
 Alpha virt. eigenvalues --    1.37174   1.42454   1.42756   1.44958   1.45635
 Alpha virt. eigenvalues --    1.48708   1.52443   1.54993   1.56265   1.59240
 Alpha virt. eigenvalues --    1.60541   1.68954   1.76117   1.77056   1.78613
 Alpha virt. eigenvalues --    1.84387   1.84648   1.89817   1.91252   1.95014
 Alpha virt. eigenvalues --    1.99072   2.01612   2.03343   2.05446   2.09915
 Alpha virt. eigenvalues --    2.10265   2.11626   2.15198   2.15722   2.18463
 Alpha virt. eigenvalues --    2.23995   2.28768   2.30356   2.33681   2.34525
 Alpha virt. eigenvalues --    2.37195   2.37944   2.46118   2.57735   2.59384
 Alpha virt. eigenvalues --    2.64826   2.65455   2.67482   2.69269   2.73136
 Alpha virt. eigenvalues --    2.74502   2.75333   2.80905   2.84524   2.85827
 Alpha virt. eigenvalues --    2.92770   2.94921   2.96095   3.00685   3.01681
 Alpha virt. eigenvalues --    3.04753   3.08357   3.11977   3.17026   3.20244
 Alpha virt. eigenvalues --    3.27283   3.33181   3.48009   3.49621   3.50366
 Alpha virt. eigenvalues --    3.55792   3.56277   3.59970   3.68349   3.68959
 Alpha virt. eigenvalues --    3.69253   3.70938   3.71815   3.72141   3.72567
 Alpha virt. eigenvalues --    3.82768   3.92009   3.96322   3.96674   4.02338
 Alpha virt. eigenvalues --    4.03515   4.12036   4.18085   4.18145   4.24366
 Alpha virt. eigenvalues --    4.24759   4.31622   4.33254   4.42670   4.44591
 Alpha virt. eigenvalues --    4.45837   4.53829   4.56405   4.57894   4.58527
 Alpha virt. eigenvalues --    4.59133   4.60530   4.62388   4.63496   4.63769
 Alpha virt. eigenvalues --    4.75725   4.81109   4.83367   5.02336   5.02949
 Alpha virt. eigenvalues --    5.03021   5.06550   5.08850   5.09282   5.10234
 Alpha virt. eigenvalues --    5.10698   5.13715   5.14495   5.19498   5.23742
 Alpha virt. eigenvalues --    5.29249   5.30166   5.43004   5.49818   5.68608
 Alpha virt. eigenvalues --    5.76047   5.76619   5.87822   5.96351   6.29113
 Alpha virt. eigenvalues --    6.37164   6.37817   6.38966   6.42534   6.44595
 Alpha virt. eigenvalues --    6.62768   6.63547   6.70700   6.97278   7.13214
 Alpha virt. eigenvalues --    7.22810   7.51999  22.89208  23.54618  31.35356
 Alpha virt. eigenvalues --   32.19006  32.21512  32.29277  44.00096
  Beta  occ. eigenvalues --  -19.25446 -14.52897 -14.52693 -14.52378 -14.51505
  Beta  occ. eigenvalues --  -10.42184 -10.31663  -1.22623  -1.22149  -1.10129
  Beta  occ. eigenvalues --   -0.92810  -0.79858  -0.73625  -0.63960  -0.61713
  Beta  occ. eigenvalues --   -0.57700  -0.55198  -0.55101  -0.54712  -0.51788
  Beta  occ. eigenvalues --   -0.50565  -0.50279  -0.47288  -0.32341  -0.28764
  Beta virt. eigenvalues --    0.01392   0.02310   0.06356   0.06411   0.08668
  Beta virt. eigenvalues --    0.13773   0.13910   0.17730   0.23075   0.27146
  Beta virt. eigenvalues --    0.27485   0.28989   0.31961   0.32280   0.34999
  Beta virt. eigenvalues --    0.36050   0.38423   0.38451   0.38997   0.42379
  Beta virt. eigenvalues --    0.43626   0.47368   0.47936   0.48976   0.49386
  Beta virt. eigenvalues --    0.50341   0.51112   0.52852   0.53486   0.55644
  Beta virt. eigenvalues --    0.58762   0.59541   0.62519   0.62576   0.65917
  Beta virt. eigenvalues --    0.67362   0.68140   0.71549   0.74134   0.77463
  Beta virt. eigenvalues --    0.81075   0.83471   0.88103   0.89403   0.91715
  Beta virt. eigenvalues --    0.92444   0.94365   1.00522   1.06586   1.09876
  Beta virt. eigenvalues --    1.15667   1.18564   1.18819   1.19946   1.22931
  Beta virt. eigenvalues --    1.25890   1.30473   1.31002   1.34235   1.36114
  Beta virt. eigenvalues --    1.37174   1.42454   1.42756   1.44958   1.45635
  Beta virt. eigenvalues --    1.48708   1.52443   1.54993   1.56265   1.59240
  Beta virt. eigenvalues --    1.60541   1.68954   1.76117   1.77056   1.78613
  Beta virt. eigenvalues --    1.84387   1.84648   1.89817   1.91252   1.95014
  Beta virt. eigenvalues --    1.99072   2.01612   2.03343   2.05446   2.09915
  Beta virt. eigenvalues --    2.10265   2.11626   2.15198   2.15722   2.18463
  Beta virt. eigenvalues --    2.23995   2.28768   2.30356   2.33681   2.34525
  Beta virt. eigenvalues --    2.37195   2.37944   2.46118   2.57735   2.59384
  Beta virt. eigenvalues --    2.64826   2.65455   2.67482   2.69269   2.73136
  Beta virt. eigenvalues --    2.74502   2.75333   2.80905   2.84524   2.85827
  Beta virt. eigenvalues --    2.92770   2.94921   2.96095   3.00685   3.01681
  Beta virt. eigenvalues --    3.04753   3.08357   3.11977   3.17026   3.20244
  Beta virt. eigenvalues --    3.27283   3.33181   3.48009   3.49621   3.50366
  Beta virt. eigenvalues --    3.55792   3.56277   3.59970   3.68349   3.68959
  Beta virt. eigenvalues --    3.69253   3.70938   3.71815   3.72141   3.72567
  Beta virt. eigenvalues --    3.82768   3.92009   3.96322   3.96674   4.02338
  Beta virt. eigenvalues --    4.03515   4.12036   4.18085   4.18145   4.24366
  Beta virt. eigenvalues --    4.24759   4.31622   4.33254   4.42670   4.44591
  Beta virt. eigenvalues --    4.45837   4.53829   4.56405   4.57894   4.58527
  Beta virt. eigenvalues --    4.59133   4.60530   4.62388   4.63496   4.63769
  Beta virt. eigenvalues --    4.75725   4.81109   4.83367   5.02336   5.02949
  Beta virt. eigenvalues --    5.03021   5.06550   5.08850   5.09282   5.10234
  Beta virt. eigenvalues --    5.10698   5.13715   5.14495   5.19498   5.23742
  Beta virt. eigenvalues --    5.29249   5.30166   5.43004   5.49818   5.68608
  Beta virt. eigenvalues --    5.76047   5.76619   5.87822   5.96351   6.29113
  Beta virt. eigenvalues --    6.37164   6.37817   6.38966   6.42534   6.44595
  Beta virt. eigenvalues --    6.62768   6.63547   6.70700   6.97278   7.13214
  Beta virt. eigenvalues --    7.22810   7.51999  22.89208  23.54618  31.35356
  Beta virt. eigenvalues --   32.19006  32.21512  32.29277  44.00096
          Condensed to atoms (all electrons):
               1          2          3          4          5          6
     1  N    6.128185   0.748122  -0.001003  -0.000099   0.000154  -0.005938
     2  C    0.748122   4.792483   0.001278  -0.000354   0.015119  -0.028675
     3  N   -0.001003   0.001278   6.329284   0.673149  -0.000218   0.002315
     4  N   -0.000099  -0.000354   0.673149   6.324899   0.000095  -0.000933
     5  O    0.000154   0.015119  -0.000218   0.000095   8.170538   0.225091
     6  N   -0.005938  -0.028675   0.002315  -0.000933   0.225091   6.460680
     7  C   -0.038751   0.399547   0.000605   0.000274  -0.098145   0.332878
     8  H    0.379168  -0.029343   0.000091  -0.000004   0.000005  -0.000190
     9  H   -0.003968  -0.029733   0.000039  -0.000002   0.017382  -0.023829
               7          8          9
     1  N   -0.038751   0.379168  -0.003968
     2  C    0.399547  -0.029343  -0.029733
     3  N    0.000605   0.000091   0.000039
     4  N    0.000274  -0.000004  -0.000002
     5  O   -0.098145   0.000005   0.017382
     6  N    0.332878  -0.000190  -0.023829
     7  C    5.134154   0.002110   0.387337
     8  H    0.002110   0.301118  -0.000100
     9  H    0.387337  -0.000100   0.511706
          Atomic-Atomic Spin Densities.
               1          2          3          4          5          6
     1  N   -0.000000   0.000000  -0.000000   0.000000  -0.000000   0.000000
     2  C    0.000000   0.000000   0.000000   0.000000   0.000000  -0.000000
     3  N   -0.000000   0.000000  -0.000000   0.000000  -0.000000   0.000000
     4  N    0.000000   0.000000   0.000000  -0.000000   0.000000  -0.000000
     5  O   -0.000000   0.000000  -0.000000   0.000000   0.000000  -0.000000
     6  N    0.000000  -0.000000   0.000000  -0.000000  -0.000000   0.000000
     7  C   -0.000000  -0.000000  -0.000000   0.000000   0.000000   0.000000
     8  H   -0.000000   0.000000  -0.000000   0.000000  -0.000000   0.000000
     9  H    0.000000   0.000000  -0.000000  -0.000000  -0.000000   0.000000
               7          8          9
     1  N   -0.000000  -0.000000   0.000000
     2  C   -0.000000   0.000000   0.000000
     3  N   -0.000000  -0.000000  -0.000000
     4  N    0.000000   0.000000  -0.000000
     5  O    0.000000  -0.000000  -0.000000
     6  N    0.000000   0.000000   0.000000
     7  C   -0.000000  -0.000000  -0.000000
     8  H   -0.000000  -0.000000   0.000000
     9  H   -0.000000   0.000000  -0.000000
 Mulliken charges and spin densities:
               1          2
     1  N   -0.205870  -0.000000
     2  C    0.131555   0.000000
     3  N   -0.005541  -0.000000
     4  N    0.002974   0.000000
     5  O   -0.330022   0.000000
     6  N    0.038601   0.000000
     7  C   -0.120010  -0.000000
     8  H    0.347145  -0.000000
     9  H    0.141168  -0.000000
 Sum of Mulliken charges =  -0.00000  -0.00000
 Mulliken charges and spin densities with hydrogens summed into heavy atoms:
               1          2
     1  N    0.141275  -0.000000
     2  C    0.131555   0.000000
     3  N   -0.005541  -0.000000
     4  N    0.002974   0.000000
     5  O   -0.330022   0.000000
     6  N    0.038601   0.000000
     7  C    0.021158  -0.000000
 APT charges:
               1
     1  N   -0.198444
     2  C   -0.452694
     3  N   -0.738122
     4  N    0.735779
     5  O   -0.067463
     6  N   -0.313868
     7  C   -0.496554
     8  H    0.963304
     9  H    0.568064
 Sum of APT charges =  -0.00000
 APT charges with hydrogens summed into heavy atoms:
               1
     1  N    0.764859
     2  C   -0.452694
     3  N   -0.738122
     4  N    0.735779
     5  O   -0.067463
     6  N   -0.313868
     7  C    0.071509
 Electronic spatial extent (au):  <R**2>=           1023.5907
 Charge=             -0.0000 electrons
 Dipole moment (field-independent basis, Debye):
    X=              0.3814    Y=              6.5131    Z=              0.0924  Tot=              6.5249
 Quadrupole moment (field-independent basis, Debye-Ang):
   XX=            -37.5789   YY=            -33.2381   ZZ=            -38.7733
   XY=             -2.7586   XZ=             -0.3491   YZ=             -0.4010
 Traceless Quadrupole moment (field-independent basis, Debye-Ang):
   XX=             -1.0488   YY=              3.2920   ZZ=             -2.2432
   XY=             -2.7586   XZ=             -0.3491   YZ=             -0.4010
 Octapole moment (field-independent basis, Debye-Ang**2):
  XXX=             -2.5657  YYY=             57.1808  ZZZ=             -0.3598  XYY=             10.7235
  XXY=              8.3981  XXZ=              0.8945  XZZ=              3.1726  YZZ=             -3.2247
  YYZ=             -0.9358  XYZ=             -0.4289
 Hexadecapole moment (field-independent basis, Debye-Ang**3):
 XXXX=           -739.6964 YYYY=           -356.4996 ZZZZ=            -37.1356 XXXY=              5.8519
 XXXZ=             -3.0027 YYYX=              3.4679 YYYZ=             -4.6294 ZZZX=              0.6085
 ZZZY=             -0.1137 XXYY=           -230.4592 XXZZ=           -132.5380 YYZZ=            -87.7784
 XXYZ=              0.7438 YYXZ=             -0.5061 ZZXY=              4.0022
 N-N= 2.298501447657D+02 E-N=-1.329889328545D+03  KE= 3.701057156520D+02
  Exact polarizability:   0.000   0.000   0.000   0.000   0.000   0.000
 Approx polarizability:  50.301  11.918 111.797  -0.970  -0.379  36.515
                          Isotropic Fermi Contact Couplings
        Atom                 a.u.       MegaHertz       Gauss      10(-4) cm-1
     1  N(14)              0.00000       0.00000       0.00000       0.00000
     2  C(13)             -0.00000      -0.00000      -0.00000      -0.00000
     3  N(14)              0.00000       0.00000       0.00000       0.00000
     4  N(14)              0.00000       0.00000       0.00000       0.00000
     5  O(17)              0.00000      -0.00000      -0.00000      -0.00000
     6  N(14)              0.00000       0.00000       0.00000       0.00000
     7  C(13)              0.00000       0.00000       0.00000       0.00000
     8  H(1)              -0.00000      -0.00000      -0.00000      -0.00000
     9  H(1)               0.00000       0.00000       0.00000       0.00000
 --------------------------------------------------------
       Center         ----  Spin Dipole Couplings  ----
                      3XX-RR        3YY-RR        3ZZ-RR
 --------------------------------------------------------
     1   Atom        0.000000     -0.000000      0.000000
     2   Atom       -0.000000      0.000000     -0.000000
     3   Atom        0.000000     -0.000000      0.000000
     4   Atom        0.000000     -0.000000      0.000000
     5   Atom       -0.000000     -0.000000      0.000000
     6   Atom       -0.000000      0.000000     -0.000000
     7   Atom       -0.000000      0.000000     -0.000000
     8   Atom       -0.000000      0.000000     -0.000000
     9   Atom        0.000000      0.000000     -0.000000
 --------------------------------------------------------
                        XY            XZ            YZ
 --------------------------------------------------------
     1   Atom       -0.000000      0.000000      0.000000
     2   Atom        0.000000     -0.000000     -0.000000
     3   Atom        0.000000     -0.000000      0.000000
     4   Atom        0.000000      0.000000     -0.000000
     5   Atom       -0.000000     -0.000000      0.000000
     6   Atom       -0.000000     -0.000000      0.000000
     7   Atom        0.000000      0.000000     -0.000000
     8   Atom        0.000000     -0.000000     -0.000000
     9   Atom        0.000000     -0.000000     -0.000000
 --------------------------------------------------------


 ---------------------------------------------------------------------------------
              Anisotropic Spin Dipole Couplings in Principal Axis System
 ---------------------------------------------------------------------------------

       Atom             a.u.   MegaHertz   Gauss  10(-4) cm-1        Axes

              Baa    -0.0000    -0.000    -0.000    -0.000  0.5568  0.8302 -0.0279
     1 N(14)  Bbb     0.0000     0.000     0.000     0.000  0.0786 -0.0191  0.9967
              Bcc     0.0000     0.000     0.000     0.000  0.8269 -0.5571 -0.0759
 
              Baa    -0.0000    -0.000    -0.000    -0.000  0.8779 -0.4665 -0.1085
     2 C(13)  Bbb    -0.0000    -0.000    -0.000    -0.000  0.1581  0.0683  0.9851
              Bcc     0.0000     0.000     0.000     0.000  0.4521  0.8819 -0.1337
 
              Baa    -0.0000    -0.000    -0.000    -0.000 -0.4798  0.8774 -0.0011
     3 N(14)  Bbb     0.0000     0.000     0.000     0.000  0.0037  0.0033  1.0000
              Bcc     0.0000     0.000     0.000     0.000  0.8774  0.4798 -0.0048
 
              Baa    -0.0000    -0.000    -0.000    -0.000 -0.3819  0.9242  0.0014
     4 N(14)  Bbb     0.0000     0.000     0.000     0.000  0.9242  0.3819 -0.0057
              Bcc     0.0000     0.000     0.000     0.000  0.0058  0.0009  1.0000
 
              Baa    -0.0000     0.000     0.000     0.000  0.6869  0.7259  0.0347
     5 O(17)  Bbb    -0.0000     0.000     0.000     0.000  0.4909 -0.4987  0.7144
              Bcc     0.0000    -0.000    -0.000    -0.000 -0.5359  0.4737  0.6989
 
              Baa    -0.0000    -0.000    -0.000    -0.000  0.9506  0.3031  0.0669
     6 N(14)  Bbb    -0.0000    -0.000    -0.000    -0.000 -0.0549 -0.0479  0.9973
              Bcc     0.0000     0.000     0.000     0.000 -0.3055  0.9517  0.0288
 
              Baa    -0.0000    -0.000    -0.000    -0.000 -0.0389  0.0355  0.9986
     7 C(13)  Bbb    -0.0000    -0.000    -0.000    -0.000  0.9458 -0.3211  0.0483
              Bcc     0.0000     0.000     0.000     0.000  0.3224  0.9464 -0.0211
 
              Baa    -0.0000    -0.000    -0.000    -0.000  0.0682 -0.0095  0.9976
     8 H(1)   Bbb    -0.0000    -0.000    -0.000    -0.000  0.8843 -0.4625 -0.0648
              Bcc     0.0000     0.000     0.000     0.000  0.4620  0.8866 -0.0231
 
              Baa    -0.0000    -0.000    -0.000    -0.000  0.1582  0.0182  0.9872
     9 H(1)   Bbb    -0.0000    -0.000    -0.000    -0.000 -0.5961  0.7988  0.0808
              Bcc     0.0000     0.000     0.000     0.000  0.7872  0.6013 -0.1372
 

 ---------------------------------------------------------------------------------

   1 Symmetry operations used in ECPInt.
 ECPInt:  NShTT=    3655 NPrTT=   11788 LenC2=    3469 LenP2D=    8577.
 LDataN:  DoStor=T MaxTD1= 8 Len=  415
 Calling FoFJK, ICntrl=    100147 FMM=F ISym2X=0 I1Cent= 0 IOpClX= 1 NMat=1 NMatS=1 NMatT=0.
 -------------------------------------------------------------------
 Center     Atomic                   Forces (Hartrees/Bohr)
 Number     Number              X              Y              Z
 -------------------------------------------------------------------
      1        7          -0.001177559    0.000402372    0.000171477
      2        6           0.000145744   -0.000195809   -0.000294754
      3        7          -0.000021820    0.000013968   -0.000018585
      4        7          -0.000023108    0.000014979    0.000003788
      5        8          -0.000001775   -0.000013208   -0.000021236
      6        7          -0.000007309    0.000097003    0.000065222
      7        6           0.000010909   -0.000031254    0.000123091
      8        1           0.000766202   -0.000329262    0.000001307
      9        1           0.000308716    0.000041211   -0.000030310
 -------------------------------------------------------------------
 Cartesian Forces:  Max     0.001177559 RMS     0.000307330
 IRC-IRC-IRC-IRC-IRC-IRC-IRC-IRC-IRC-IRC-IRC-IRC-IRC-IRC-IRC-IRC-IRC-IRC
          ******** Start new reaction path calculation ********
 Supplied step size of   0.0500 bohr.
    Integration on MW PES will use step size of   0.0564 sqrt(amu)*bohr.
 Point Number:   0          Path Number:   1
 Calculating another point on the path.
 IRC-IRC-IRC-IRC-IRC-IRC-IRC-IRC-IRC-IRC-IRC-IRC-IRC-IRC-IRC-IRC-IRC-IRC
                          Input orientation:                          
 ---------------------------------------------------------------------
 Center     Atomic      Atomic             Coordinates (Angstroms)
 Number     Number       Type             X           Y           Z
 ---------------------------------------------------------------------
      1          7           0       -0.462787    2.352198   -0.034572
      2          6           0       -1.018982    1.331080    0.015512
      3          7           0        2.513204    0.217218    0.016094
      4          7           0        2.963965   -0.772550    0.015509
      5          8           0       -1.455859   -2.036311   -0.013169
      6          7           0       -0.860948   -0.976723   -0.058718
      7          6           0       -1.658920    0.147597    0.061899
      8          1           0        0.015301    3.221839   -0.043523
      9          1           0       -2.733703    0.094192    0.187908
 ---------------------------------------------------------------------
                    Distance matrix (angstroms):
                    1          2          3          4          5
     1  N    0.000000
     2  C    1.163849   0.000000
     3  N    3.662953   3.703650   0.000000
     4  N    4.637800   4.504345   1.087579   0.000000
     5  O    4.499517   3.395733   4.564286   4.597038   0.000000
     6  N    3.352735   2.314398   3.579943   3.831077   1.216026
     7  C    2.510041   1.346218   4.172956   4.713798   2.194612
     8  H    0.992434   2.155968   3.907789   4.965204   5.460163
     9  H    3.210163   2.121292   5.251160   5.765795   2.492460
                    6          7          8          9
     6  N    0.000000
     7  C    1.383981   0.000000
     8  H    4.289052   3.502156   0.000000
     9  H    2.171381   1.083461   4.170464   0.000000
 Symmetry turned off by external request.
 Stoichiometry    C2H2N4O
 Framework group  C1[X(C2H2N4O)]
 Deg. of freedom    21
 Full point group                 C1      NOp   1
 Rotational constants (GHZ):           2.5481604           1.6202120           0.9910709
 Standard basis: def2TZVP (5D, 7F)
   229 basis functions,   373 primitive gaussians,   264 cartesian basis functions
    25 alpha electrons       25 beta electrons
       nuclear repulsion energy       229.8507920307 Hartrees.
 NAtoms=    9 NActive=    9 NUniq=    9 SFac= 1.00D+00 NAtFMM=   60 NAOKFM=F Big=F
 Integral buffers will be    131072 words long.
 Raffenetti 2 integral format.
 Two-electron integral symmetry is turned off.
 Nuclear repulsion after empirical dispersion term =      229.8485935655 Hartrees.
 One-electron integrals computed using PRISM.
   1 Symmetry operations used in ECPInt.
 ECPInt:  NShTT=    3655 NPrTT=   11788 LenC2=    3470 LenP2D=    8578.
 LDataN:  DoStor=T MaxTD1= 6 Len=  172
 NBasis=   229 RedAO= T EigKep=  7.21D-05  NBF=   229
 NBsUse=   229 1.00D-06 EigRej= -1.00D+00 NBFU=   229
 Initial guess from the checkpoint file:  "/scratch/23935644/Gau-2511.chk"
 B after Tr=    -0.051350    0.061931    0.002710
         Rot=    1.000000   -0.000197    0.000002    0.000009 Ang=  -0.02 deg.
 Initial guess <Sx>= 0.0000 <Sy>= 0.0000 <Sz>= 0.0000 <S**2>= 0.0000 S= 0.0000
 ExpMin= 9.52D-02 ExpMax= 2.70D+04 ExpMxC= 9.22D+02 IAcc=2 IRadAn=         4 AccDes= 0.00D+00
 Harris functional with IExCor= 4639 and IRadAn=       4 diagonalized for initial guess.
 HarFok:  IExCor= 4639 AccDes= 0.00D+00 IRadAn=         4 IDoV= 1 UseB2=F ITyADJ=14
 ICtDFT=  3500011 ScaDFX=  1.000000  1.000000  1.000000  1.000000
 FoFCou: FMM=F IPFlag=           0 FMFlag=      100000 FMFlg1=           0
         NFxFlg=           0 DoJE=T BraDBF=F KetDBF=T FulRan=T
         wScrn=  0.000000 ICntrl=       500 IOpCl=  0 I1Cent=   200000004 NGrid=           0
         NMat0=    1 NMatS0=      1 NMatT0=    0 NMatD0=    1 NMtDS0=    0 NMtDT0=    0
 Symmetry not used in FoFCou.
 Requested convergence on RMS density matrix=1.00D-08 within 128 cycles.
 Requested convergence on MAX density matrix=1.00D-06.
 Requested convergence on             energy=1.00D-06.
 No special actions if energy rises.
 Integral accuracy reduced to 1.0D-05 until final iterations.
 Initial convergence to 1.0D-05 achieved.  Increase integral accuracy.
 SCF Done:  E(UwB97XD) =  -371.539817581     A.U. after   11 cycles
            NFock= 11  Conv=0.78D-08     -V/T= 2.0039
 <Sx>= 0.0000 <Sy>= 0.0000 <Sz>= 0.0000 <S**2>=-0.0000 S=-0.0000
 <L.S>=  0.00000000000    
 Annihilation of the first spin contaminant:
 S**2 before annihilation    -0.0000,   after     0.0000
 DoSCS=F DFT=T ScalE2(SS,OS)=  1.000000  1.000000
 Range of M.O.s used for correlation:     1   229
 NBasis=   229 NAE=    25 NBE=    25 NFC=     0 NFV=     0
 NROrb=    229 NOA=    25 NOB=    25 NVA=   204 NVB=   204

 **** Warning!!: The largest alpha MO coefficient is  0.26665184D+02


 **** Warning!!: The largest beta MO coefficient is  0.26665184D+02

 Symmetrizing basis deriv contribution to polar:
 IMax=3 JMax=2 DiffMx= 0.00D+00
   1 Symmetry operations used in ECPInt.
 ECPInt:  NShTT=    3655 NPrTT=   11788 LenC2=    3470 LenP2D=    8578.
 LDataN:  DoStor=T MaxTD1= 7 Len=  274
 Calling FoFJK, ICntrl=      2147 FMM=F ISym2X=0 I1Cent= 0 IOpClX= 1 NMat=1 NMatS=1 NMatT=0.
 -------------------------------------------------------------------
 Center     Atomic                   Forces (Hartrees/Bohr)
 Number     Number              X              Y              Z
 -------------------------------------------------------------------
      1        7          -0.001105687    0.000886295   -0.001326806
      2        6           0.000173243   -0.000298730    0.000337060
      3        7          -0.000022753    0.000014629   -0.000003965
      4        7          -0.000023433    0.000015754   -0.000004485
      5        8          -0.000001695   -0.000003837   -0.000039290
      6        7          -0.000000782    0.000080903    0.000088009
      7        6           0.000020619   -0.000003428    0.000159796
      8        1           0.000652888   -0.000731114    0.000822967
      9        1           0.000307599    0.000039529   -0.000033285
 -------------------------------------------------------------------
 Cartesian Forces:  Max     0.001326806 RMS     0.000462685
 IRC-IRC-IRC-IRC-IRC-IRC-IRC-IRC-IRC-IRC-IRC-IRC-IRC-IRC-IRC-IRC-IRC-IRC
 Pt  1 Step number   1 out of a maximum of  20
 Modified Bulirsch-Stoer Extrapolation Cycles:
    EPS =    0.000010000000000
      PEZero:  N= 2 I= 1 D=  1.47D-04 Err=  3.42D-04
      PEZero:  N= 3 I= 2 D=  1.47D-04 Err=  2.28D-04
      PEZero:  N= 3 I= 1 D=  2.94D-04 Err=  1.72D-06
 Maximum DWI energy   std dev =  0.000006001 at pt    -1
 Maximum DWI gradient std dev =  1.111426906 at pt     2
 CORRECTOR INTEGRATION CONVERGENCE:
   Recorrection delta-x convergence threshold:    0.010000
   Delta-x Convergence NOT Met
 IRC-IRC-IRC-IRC-IRC-IRC-IRC-IRC-IRC-IRC-IRC-IRC-IRC-IRC-IRC-IRC-IRC-IRC
                          Input orientation:                          
 ---------------------------------------------------------------------
 Center     Atomic      Atomic             Coordinates (Angstroms)
 Number     Number       Type             X           Y           Z
 ---------------------------------------------------------------------
      1          7           0       -0.463298    2.352450   -0.034273
      2          6           0       -1.018903    1.330972    0.015237
      3          7           0        2.513191    0.217226    0.016084
      4          7           0        2.963953   -0.772542    0.015516
      5          8           0       -1.455858   -2.036304   -0.013175
      6          7           0       -0.860933   -0.976700   -0.058692
      7          6           0       -1.658818    0.147594    0.061948
      8          1           0        0.019896    3.218879   -0.045160
      9          1           0       -2.733241    0.094312    0.187890
 ---------------------------------------------------------------------
                    Distance matrix (angstroms):
                    1          2          3          4          5
     1  N    0.000000
     2  C    1.163858   0.000000
     3  N    3.663497   3.703528   0.000000
     4  N    4.638330   4.504210   1.087579   0.000000
     5  O    4.499642   3.395627   4.564275   4.597025   0.000000
     6  N    3.352902   2.314254   3.579912   3.831049   1.216046
     7  C    2.509963   1.346127   4.172843   4.713684   2.194595
     8  H    0.992116   2.155677   3.902588   4.960100   5.458555
     9  H    3.209545   2.120870   5.250683   5.765342   2.492321
                    6          7          8          9
     6  N    0.000000
     7  C    1.383912   0.000000
     8  H    4.287065   3.501763   0.000000
     9  H    2.171038   1.083090   4.170970   0.000000
 Symmetry turned off by external request.
 Stoichiometry    C2H2N4O
 Framework group  C1[X(C2H2N4O)]
 Deg. of freedom    21
 Full point group                 C1      NOp   1
 Rotational constants (GHZ):           2.5482563           1.6202344           0.9910929
 Standard basis: def2TZVP (5D, 7F)
   229 basis functions,   373 primitive gaussians,   264 cartesian basis functions
    25 alpha electrons       25 beta electrons
       nuclear repulsion energy       229.8578675658 Hartrees.
 NAtoms=    9 NActive=    9 NUniq=    9 SFac= 1.00D+00 NAtFMM=   60 NAOKFM=F Big=F
 Integral buffers will be    131072 words long.
 Raffenetti 2 integral format.
 Two-electron integral symmetry is turned off.
 Nuclear repulsion after empirical dispersion term =      229.8556687695 Hartrees.
 One-electron integrals computed using PRISM.
   1 Symmetry operations used in ECPInt.
 ECPInt:  NShTT=    3655 NPrTT=   11788 LenC2=    3471 LenP2D=    8580.
 LDataN:  DoStor=T MaxTD1= 6 Len=  172
 NBasis=   229 RedAO= T EigKep=  7.21D-05  NBF=   229
 NBsUse=   229 1.00D-06 EigRej= -1.00D+00 NBFU=   229
 Initial guess from the checkpoint file:  "/scratch/23935644/Gau-2511.chk"
 B after Tr=     0.000093   -0.000055   -0.000029
         Rot=    1.000000    0.000013    0.000000    0.000014 Ang=   0.00 deg.
 Initial guess <Sx>= 0.0000 <Sy>= 0.0000 <Sz>= 0.0000 <S**2>=-0.0000 S=-0.0000
 ExpMin= 9.52D-02 ExpMax= 2.70D+04 ExpMxC= 9.22D+02 IAcc=2 IRadAn=         4 AccDes= 0.00D+00
 Harris functional with IExCor= 4639 and IRadAn=       4 diagonalized for initial guess.
 HarFok:  IExCor= 4639 AccDes= 0.00D+00 IRadAn=         4 IDoV= 1 UseB2=F ITyADJ=14
 ICtDFT=  3500011 ScaDFX=  1.000000  1.000000  1.000000  1.000000
 FoFCou: FMM=F IPFlag=           0 FMFlag=      100000 FMFlg1=           0
         NFxFlg=           0 DoJE=T BraDBF=F KetDBF=T FulRan=T
         wScrn=  0.000000 ICntrl=       500 IOpCl=  0 I1Cent=   200000004 NGrid=           0
         NMat0=    1 NMatS0=      1 NMatT0=    0 NMatD0=    1 NMtDS0=    0 NMtDT0=    0
 Symmetry not used in FoFCou.
 Requested convergence on RMS density matrix=1.00D-08 within 128 cycles.
 Requested convergence on MAX density matrix=1.00D-06.
 Requested convergence on             energy=1.00D-06.
 No special actions if energy rises.
 Integral accuracy reduced to 1.0D-05 until final iterations.
 Initial convergence to 1.0D-05 achieved.  Increase integral accuracy.
 SCF Done:  E(UwB97XD) =  -371.539824859     A.U. after   10 cycles
            NFock= 10  Conv=0.54D-08     -V/T= 2.0039
 <Sx>= 0.0000 <Sy>= 0.0000 <Sz>= 0.0000 <S**2>=-0.0000 S=-0.0000
 <L.S>=  0.00000000000    
 Annihilation of the first spin contaminant:
 S**2 before annihilation    -0.0000,   after     0.0000
 DoSCS=F DFT=T ScalE2(SS,OS)=  1.000000  1.000000
 Range of M.O.s used for correlation:     1   229
 NBasis=   229 NAE=    25 NBE=    25 NFC=     0 NFV=     0
 NROrb=    229 NOA=    25 NOB=    25 NVA=   204 NVB=   204

 **** Warning!!: The largest alpha MO coefficient is  0.26666433D+02


 **** Warning!!: The largest beta MO coefficient is  0.26666433D+02

 Symmetrizing basis deriv contribution to polar:
 IMax=3 JMax=2 DiffMx= 0.00D+00
   1 Symmetry operations used in ECPInt.
 ECPInt:  NShTT=    3655 NPrTT=   11788 LenC2=    3471 LenP2D=    8580.
 LDataN:  DoStor=T MaxTD1= 7 Len=  274
 Calling FoFJK, ICntrl=      2147 FMM=F ISym2X=0 I1Cent= 0 IOpClX= 1 NMat=1 NMatS=1 NMatT=0.
 -------------------------------------------------------------------
 Center     Atomic                   Forces (Hartrees/Bohr)
 Number     Number              X              Y              Z
 -------------------------------------------------------------------
      1        7          -0.001104385    0.000485157   -0.001288195
      2        6           0.000219325   -0.000172835    0.000352322
      3        7          -0.000024430    0.000015291   -0.000005106
      4        7          -0.000023820    0.000017022   -0.000003863
      5        8           0.000000082    0.000017099   -0.000032055
      6        7           0.000037937    0.000033372    0.000069917
      7        6           0.000141314   -0.000013003    0.000119532
      8        1           0.000699943   -0.000394771    0.000789082
      9        1           0.000054034    0.000012667   -0.000001634
 -------------------------------------------------------------------
 Cartesian Forces:  Max     0.001288195 RMS     0.000414238
 IRC-IRC-IRC-IRC-IRC-IRC-IRC-IRC-IRC-IRC-IRC-IRC-IRC-IRC-IRC-IRC-IRC-IRC
 Error in corrector energy =           0.0000012941
 Magnitude of corrector gradient =     0.0020979730
 Magnitude of analytic gradient =      0.0021524428
 Magnitude of difference =             0.0005233643
 Angle between gradients (degrees)=   14.0698
 Pt  1 Step number   2 out of a maximum of  20
 Modified Bulirsch-Stoer Extrapolation Cycles:
    EPS =    0.000010000000000
      PEZero:  N= 2 I= 1 D=  1.47D-04 Err=  2.97D-04
      PEZero:  N= 3 I= 2 D=  1.47D-04 Err=  1.96D-04
      PEZero:  N= 3 I= 1 D=  2.94D-04 Err=  2.38D-06
 Maximum DWI energy   std dev =  0.000005180 at pt    49
 Maximum DWI gradient std dev =  1.114718108 at pt     2
 CORRECTOR INTEGRATION CONVERGENCE:
   Recorrection delta-x convergence threshold:    0.010000
   Delta-x Convergence Met
 Point Number:   1          Path Number:   1
   CHANGE IN THE REACTION COORDINATE =    0.05398
   NET REACTION COORDINATE UP TO THIS POINT =    0.05398
  # OF POINTS ALONG THE PATH =   1
  # OF STEPS =   2

 Calculating another point on the path.
 IRC-IRC-IRC-IRC-IRC-IRC-IRC-IRC-IRC-IRC-IRC-IRC-IRC-IRC-IRC-IRC-IRC-IRC
                          Input orientation:                          
 ---------------------------------------------------------------------
 Center     Atomic      Atomic             Coordinates (Angstroms)
 Number     Number       Type             X           Y           Z
 ---------------------------------------------------------------------
      1          7           0       -0.464708    2.353038   -0.037040
      2          6           0       -1.018507    1.330738    0.016348
      3          7           0        2.513152    0.217250    0.016082
      4          7           0        2.963917   -0.772515    0.015503
      5          8           0       -1.455852   -2.036273   -0.013217
      6          7           0       -0.860849   -0.976694   -0.058594
      7          6           0       -1.658666    0.147572    0.062141
      8          1           0        0.032545    3.212429   -0.022728
      9          1           0       -2.733049    0.094333    0.187878
 ---------------------------------------------------------------------
                    Distance matrix (angstroms):
                    1          2          3          4          5
     1  N    0.000000
     2  C    1.163890   0.000000
     3  N    3.664978   3.703035   0.000000
     4  N    4.639753   4.503706   1.087577   0.000000
     5  O    4.499886   3.395424   4.564232   4.596984   0.000000
     6  N    3.353282   2.314025   3.579799   3.830928   1.216057
     7  C    2.509870   1.346024   4.172655   4.713492   2.194537
     8  H    0.992985   2.155690   3.889218   4.947138   5.455666
     9  H    3.209004   2.120796   5.250453   5.765116   2.492218
                    6          7          8          9
     6  N    0.000000
     7  C    1.383858   0.000000
     8  H    4.283479   3.501535   0.000000
     9  H    2.170940   1.083025   4.173176   0.000000
 Symmetry turned off by external request.
 Stoichiometry    C2H2N4O
 Framework group  C1[X(C2H2N4O)]
 Deg. of freedom    21
 Full point group                 C1      NOp   1
 Rotational constants (GHZ):           2.5484044           1.6202554           0.9911301
 Standard basis: def2TZVP (5D, 7F)
   229 basis functions,   373 primitive gaussians,   264 cartesian basis functions
    25 alpha electrons       25 beta electrons
       nuclear repulsion energy       229.8611012532 Hartrees.
 NAtoms=    9 NActive=    9 NUniq=    9 SFac= 1.00D+00 NAtFMM=   60 NAOKFM=F Big=F
 Integral buffers will be    131072 words long.
 Raffenetti 2 integral format.
 Two-electron integral symmetry is turned off.
 Nuclear repulsion after empirical dispersion term =      229.8589014140 Hartrees.
 One-electron integrals computed using PRISM.
   1 Symmetry operations used in ECPInt.
 ECPInt:  NShTT=    3655 NPrTT=   11788 LenC2=    3471 LenP2D=    8581.
 LDataN:  DoStor=T MaxTD1= 6 Len=  172
 NBasis=   229 RedAO= T EigKep=  7.23D-05  NBF=   229
 NBsUse=   229 1.00D-06 EigRej= -1.00D+00 NBFU=   229
 Initial guess from the checkpoint file:  "/scratch/23935644/Gau-2511.chk"
 B after Tr=     0.000236   -0.000124    0.000400
         Rot=    1.000000   -0.000169    0.000002    0.000038 Ang=  -0.02 deg.
 Initial guess <Sx>= 0.0000 <Sy>= 0.0000 <Sz>= 0.0000 <S**2>= 0.0000 S= 0.0000
 ExpMin= 9.52D-02 ExpMax= 2.70D+04 ExpMxC= 9.22D+02 IAcc=2 IRadAn=         4 AccDes= 0.00D+00
 Harris functional with IExCor= 4639 and IRadAn=       4 diagonalized for initial guess.
 HarFok:  IExCor= 4639 AccDes= 0.00D+00 IRadAn=         4 IDoV= 1 UseB2=F ITyADJ=14
 ICtDFT=  3500011 ScaDFX=  1.000000  1.000000  1.000000  1.000000
 FoFCou: FMM=F IPFlag=           0 FMFlag=      100000 FMFlg1=           0
         NFxFlg=           0 DoJE=T BraDBF=F KetDBF=T FulRan=T
         wScrn=  0.000000 ICntrl=       500 IOpCl=  0 I1Cent=   200000004 NGrid=           0
         NMat0=    1 NMatS0=      1 NMatT0=    0 NMatD0=    1 NMtDS0=    0 NMtDT0=    0
 Symmetry not used in FoFCou.
 Requested convergence on RMS density matrix=1.00D-08 within 128 cycles.
 Requested convergence on MAX density matrix=1.00D-06.
 Requested convergence on             energy=1.00D-06.
 No special actions if energy rises.
 Integral accuracy reduced to 1.0D-05 until final iterations.
 Initial convergence to 1.0D-05 achieved.  Increase integral accuracy.
 SCF Done:  E(UwB97XD) =  -371.539908214     A.U. after   13 cycles
            NFock= 13  Conv=0.84D-08     -V/T= 2.0039
 <Sx>= 0.0000 <Sy>= 0.0000 <Sz>= 0.0000 <S**2>=-0.0000 S=-0.0000
 <L.S>=  0.00000000000    
 Annihilation of the first spin contaminant:
 S**2 before annihilation    -0.0000,   after    -0.0000
 DoSCS=F DFT=T ScalE2(SS,OS)=  1.000000  1.000000
 Range of M.O.s used for correlation:     1   229
 NBasis=   229 NAE=    25 NBE=    25 NFC=     0 NFV=     0
 NROrb=    229 NOA=    25 NOB=    25 NVA=   204 NVB=   204

 **** Warning!!: The largest alpha MO coefficient is  0.25624215D+02


 **** Warning!!: The largest beta MO coefficient is  0.25624215D+02

 Symmetrizing basis deriv contribution to polar:
 IMax=3 JMax=2 DiffMx= 0.00D+00
   1 Symmetry operations used in ECPInt.
 ECPInt:  NShTT=    3655 NPrTT=   11788 LenC2=    3471 LenP2D=    8581.
 LDataN:  DoStor=T MaxTD1= 7 Len=  274
 Calling FoFJK, ICntrl=      2147 FMM=F ISym2X=0 I1Cent= 0 IOpClX= 1 NMat=1 NMatS=1 NMatT=0.
 -------------------------------------------------------------------
 Center     Atomic                   Forces (Hartrees/Bohr)
 Number     Number              X              Y              Z
 -------------------------------------------------------------------
      1        7          -0.000402523    0.001245274   -0.002683464
      2        6           0.000159291   -0.000288514    0.001022059
      3        7          -0.000028896    0.000018037    0.000007283
      4        7          -0.000024689    0.000019853   -0.000010908
      5        8           0.000012563    0.000037871   -0.000033860
      6        7           0.000063615   -0.000028305    0.000047229
      7        6           0.000057902    0.000034824    0.000117806
      8        1           0.000154187   -0.001034486    0.001518496
      9        1           0.000008550   -0.000004554    0.000015358
 -------------------------------------------------------------------
 Cartesian Forces:  Max     0.002683464 RMS     0.000707045
 IRC-IRC-IRC-IRC-IRC-IRC-IRC-IRC-IRC-IRC-IRC-IRC-IRC-IRC-IRC-IRC-IRC-IRC
 Pt  2 Step number   1 out of a maximum of  20
 Modified Bulirsch-Stoer Extrapolation Cycles:
    EPS =    0.000010000000000
      PEZero:  N= 2 I= 1 D=  2.92D-04 Err=  8.36D-05
      PEZero:  N= 3 I= 2 D=  2.92D-04 Err=  5.56D-05
      PEZero:  N= 3 I= 1 D=  5.84D-04 Err=  2.44D-07
 Maximum DWI energy   std dev =  0.000000058 at pt    34
 Maximum DWI gradient std dev =  0.163831255 at pt    28
 CORRECTOR INTEGRATION CONVERGENCE:
   Recorrection delta-x convergence threshold:    0.010000
   Delta-x Convergence Met
 Point Number:   2          Path Number:   1
   CHANGE IN THE REACTION COORDINATE =    0.05582
   NET REACTION COORDINATE UP TO THIS POINT =    0.10980
  # OF POINTS ALONG THE PATH =   2
  # OF STEPS =   1

 Calculating another point on the path.
 IRC-IRC-IRC-IRC-IRC-IRC-IRC-IRC-IRC-IRC-IRC-IRC-IRC-IRC-IRC-IRC-IRC-IRC
                          Input orientation:                          
 ---------------------------------------------------------------------
 Center     Atomic      Atomic             Coordinates (Angstroms)
 Number     Number       Type             X           Y           Z
 ---------------------------------------------------------------------
      1          7           0       -0.465555    2.353469   -0.040161
      2          6           0       -1.018217    1.330561    0.017789
      3          7           0        2.513120    0.217270    0.016094
      4          7           0        2.963890   -0.772492    0.015493
      5          8           0       -1.455842   -2.036232   -0.013243
      6          7           0       -0.860774   -0.976733   -0.058572
      7          6           0       -1.658610    0.147620    0.062295
      8          1           0        0.039971    3.207236    0.002058
      9          1           0       -2.732951    0.094275    0.188225
 ---------------------------------------------------------------------
                    Distance matrix (angstroms):
                    1          2          3          4          5
     1  N    0.000000
     2  C    1.164102   0.000000
     3  N    3.665927   3.702670   0.000000
     4  N    4.640670   4.503334   1.087576   0.000000
     5  O    4.500096   3.395258   4.564186   4.596944   0.000000
     6  N    3.353622   2.313921   3.579718   3.830830   1.216017
     7  C    2.509910   1.345896   4.172568   4.713418   2.194545
     8  H    0.993106   2.154511   3.880278   4.938392   5.452673
     9  H    3.208925   2.120794   5.250335   5.764991   2.492118
                    6          7          8          9
     6  N    0.000000
     7  C    1.383951   0.000000
     8  H    4.280259   3.500009   0.000000
     9  H    2.170948   1.083011   4.173043   0.000000
 Symmetry turned off by external request.
 Stoichiometry    C2H2N4O
 Framework group  C1[X(C2H2N4O)]
 Deg. of freedom    21
 Full point group                 C1      NOp   1
 Rotational constants (GHZ):           2.5485180           1.6202616           0.9911643
 Standard basis: def2TZVP (5D, 7F)
   229 basis functions,   373 primitive gaussians,   264 cartesian basis functions
    25 alpha electrons       25 beta electrons
       nuclear repulsion energy       229.8624791255 Hartrees.
 NAtoms=    9 NActive=    9 NUniq=    9 SFac= 1.00D+00 NAtFMM=   60 NAOKFM=F Big=F
 Integral buffers will be    131072 words long.
 Raffenetti 2 integral format.
 Two-electron integral symmetry is turned off.
 Nuclear repulsion after empirical dispersion term =      229.8602785202 Hartrees.
 One-electron integrals computed using PRISM.
   1 Symmetry operations used in ECPInt.
 ECPInt:  NShTT=    3655 NPrTT=   11788 LenC2=    3471 LenP2D=    8581.
 LDataN:  DoStor=T MaxTD1= 6 Len=  172
 NBasis=   229 RedAO= T EigKep=  7.27D-05  NBF=   229
 NBsUse=   229 1.00D-06 EigRej= -1.00D+00 NBFU=   229
 Initial guess from the checkpoint file:  "/scratch/23935644/Gau-2511.chk"
 B after Tr=     0.000143   -0.000102    0.000461
         Rot=    1.000000   -0.000191    0.000000    0.000023 Ang=  -0.02 deg.
 Initial guess <Sx>= 0.0000 <Sy>= 0.0000 <Sz>= 0.0000 <S**2>=-0.0000 S=-0.0000
 ExpMin= 9.52D-02 ExpMax= 2.70D+04 ExpMxC= 9.22D+02 IAcc=2 IRadAn=         4 AccDes= 0.00D+00
 Harris functional with IExCor= 4639 and IRadAn=       4 diagonalized for initial guess.
 HarFok:  IExCor= 4639 AccDes= 0.00D+00 IRadAn=         4 IDoV= 1 UseB2=F ITyADJ=14
 ICtDFT=  3500011 ScaDFX=  1.000000  1.000000  1.000000  1.000000
 FoFCou: FMM=F IPFlag=           0 FMFlag=      100000 FMFlg1=           0
         NFxFlg=           0 DoJE=T BraDBF=F KetDBF=T FulRan=T
         wScrn=  0.000000 ICntrl=       500 IOpCl=  0 I1Cent=   200000004 NGrid=           0
         NMat0=    1 NMatS0=      1 NMatT0=    0 NMatD0=    1 NMtDS0=    0 NMtDT0=    0
 Symmetry not used in FoFCou.
 Requested convergence on RMS density matrix=1.00D-08 within 128 cycles.
 Requested convergence on MAX density matrix=1.00D-06.
 Requested convergence on             energy=1.00D-06.
 No special actions if energy rises.
 Integral accuracy reduced to 1.0D-05 until final iterations.
 Initial convergence to 1.0D-05 achieved.  Increase integral accuracy.
 SCF Done:  E(UwB97XD) =  -371.540034720     A.U. after   12 cycles
            NFock= 12  Conv=0.69D-08     -V/T= 2.0039
 <Sx>= 0.0000 <Sy>= 0.0000 <Sz>= 0.0000 <S**2>=-0.0000 S=-0.0000
 <L.S>=  0.00000000000    
 Annihilation of the first spin contaminant:
 S**2 before annihilation    -0.0000,   after     0.0000
 DoSCS=F DFT=T ScalE2(SS,OS)=  1.000000  1.000000
 Range of M.O.s used for correlation:     1   229
 NBasis=   229 NAE=    25 NBE=    25 NFC=     0 NFV=     0
 NROrb=    229 NOA=    25 NOB=    25 NVA=   204 NVB=   204

 **** Warning!!: The largest alpha MO coefficient is  0.24724732D+02


 **** Warning!!: The largest beta MO coefficient is  0.24724732D+02

 Symmetrizing basis deriv contribution to polar:
 IMax=3 JMax=2 DiffMx= 0.00D+00
   1 Symmetry operations used in ECPInt.
 ECPInt:  NShTT=    3655 NPrTT=   11788 LenC2=    3471 LenP2D=    8581.
 LDataN:  DoStor=T MaxTD1= 7 Len=  274
 Calling FoFJK, ICntrl=      2147 FMM=F ISym2X=0 I1Cent= 0 IOpClX= 1 NMat=1 NMatS=1 NMatT=0.
 -------------------------------------------------------------------
 Center     Atomic                   Forces (Hartrees/Bohr)
 Number     Number              X              Y              Z
 -------------------------------------------------------------------
      1        7          -0.000337604    0.001256838   -0.004108084
      2        6           0.000177537   -0.000308120    0.001674671
      3        7          -0.000031429    0.000019365    0.000021418
      4        7          -0.000025012    0.000022007   -0.000018903
      5        8           0.000015934    0.000061011   -0.000036056
      6        7           0.000077651   -0.000068744    0.000018254
      7        6           0.000036244    0.000091191    0.000147238
      8        1           0.000087479   -0.001063887    0.002273810
      9        1          -0.000000801   -0.000009661    0.000027653
 -------------------------------------------------------------------
 Cartesian Forces:  Max     0.004108084 RMS     0.001015847
 IRC-IRC-IRC-IRC-IRC-IRC-IRC-IRC-IRC-IRC-IRC-IRC-IRC-IRC-IRC-IRC-IRC-IRC
 Pt  3 Step number   1 out of a maximum of  20
 Modified Bulirsch-Stoer Extrapolation Cycles:
    EPS =    0.000010000000000
      PEZero:  N= 2 I= 1 D=  2.94D-04 Err=  3.88D-05
      PEZero:  N= 3 I= 2 D=  2.94D-04 Err=  2.58D-05
      PEZero:  N= 3 I= 1 D=  5.87D-04 Err=  7.79D-08
 Maximum DWI energy   std dev =  0.000000504 at pt    60
 Maximum DWI gradient std dev =  0.109920167 at pt    28
 CORRECTOR INTEGRATION CONVERGENCE:
   Recorrection delta-x convergence threshold:    0.010000
   Delta-x Convergence Met
 Point Number:   3          Path Number:   1
   CHANGE IN THE REACTION COORDINATE =    0.05630
   NET REACTION COORDINATE UP TO THIS POINT =    0.16610
  # OF POINTS ALONG THE PATH =   3
  # OF STEPS =   1

 Calculating another point on the path.
 IRC-IRC-IRC-IRC-IRC-IRC-IRC-IRC-IRC-IRC-IRC-IRC-IRC-IRC-IRC-IRC-IRC-IRC
                          Input orientation:                          
 ---------------------------------------------------------------------
 Center     Atomic      Atomic             Coordinates (Angstroms)
 Number     Number       Type             X           Y           Z
 ---------------------------------------------------------------------
      1          7           0       -0.466078    2.353794   -0.043454
      2          6           0       -1.018006    1.330422    0.019386
      3          7           0        2.513099    0.217283    0.016114
      4          7           0        2.963874   -0.772476    0.015477
      5          8           0       -1.455834   -2.036186   -0.013264
      6          7           0       -0.860712   -0.976796   -0.058570
      7          6           0       -1.658590    0.147711    0.062428
      8          1           0        0.044181    3.203003    0.027768
      9          1           0       -2.732908    0.094196    0.188559
 ---------------------------------------------------------------------
                    Distance matrix (angstroms):
                    1          2          3          4          5
     1  N    0.000000
     2  C    1.164416   0.000000
     3  N    3.666569   3.702403   0.000000
     4  N    4.641294   4.503061   1.087576   0.000000
     5  O    4.500273   3.395115   4.564145   4.596913   0.000000
     6  N    3.353922   2.313886   3.579665   3.830755   1.215949
     7  C    2.509999   1.345736   4.172526   4.713398   2.194595
     8  H    0.993274   2.152875   3.874302   4.932463   5.449846
     9  H    3.209070   2.120792   5.250283   5.764928   2.492022
                    6          7          8          9
     6  N    0.000000
     7  C    1.384112   0.000000
     8  H    4.277499   3.497919   0.000000
     9  H    2.170994   1.083019   4.171661   0.000000
 Symmetry turned off by external request.
 Stoichiometry    C2H2N4O
 Framework group  C1[X(C2H2N4O)]
 Deg. of freedom    21
 Full point group                 C1      NOp   1
 Rotational constants (GHZ):           2.5485940           1.6202514           0.9911940
 Standard basis: def2TZVP (5D, 7F)
   229 basis functions,   373 primitive gaussians,   264 cartesian basis functions
    25 alpha electrons       25 beta electrons
       nuclear repulsion energy       229.8609777714 Hartrees.
 NAtoms=    9 NActive=    9 NUniq=    9 SFac= 1.00D+00 NAtFMM=   60 NAOKFM=F Big=F
 Integral buffers will be    131072 words long.
 Raffenetti 2 integral format.
 Two-electron integral symmetry is turned off.
 Nuclear repulsion after empirical dispersion term =      229.8587766058 Hartrees.
 One-electron integrals computed using PRISM.
   1 Symmetry operations used in ECPInt.
 ECPInt:  NShTT=    3655 NPrTT=   11788 LenC2=    3472 LenP2D=    8582.
 LDataN:  DoStor=T MaxTD1= 6 Len=  172
 NBasis=   229 RedAO= T EigKep=  7.31D-05  NBF=   229
 NBsUse=   229 1.00D-06 EigRej= -1.00D+00 NBFU=   229
 Initial guess from the checkpoint file:  "/scratch/23935644/Gau-2511.chk"
 B after Tr=     0.000082   -0.000083    0.000476
         Rot=    1.000000   -0.000198    0.000001    0.000013 Ang=  -0.02 deg.
 Initial guess <Sx>= 0.0000 <Sy>= 0.0000 <Sz>= 0.0000 <S**2>= 0.0000 S= 0.0000
 ExpMin= 9.52D-02 ExpMax= 2.70D+04 ExpMxC= 9.22D+02 IAcc=2 IRadAn=         4 AccDes= 0.00D+00
 Harris functional with IExCor= 4639 and IRadAn=       4 diagonalized for initial guess.
 HarFok:  IExCor= 4639 AccDes= 0.00D+00 IRadAn=         4 IDoV= 1 UseB2=F ITyADJ=14
 ICtDFT=  3500011 ScaDFX=  1.000000  1.000000  1.000000  1.000000
 FoFCou: FMM=F IPFlag=           0 FMFlag=      100000 FMFlg1=           0
         NFxFlg=           0 DoJE=T BraDBF=F KetDBF=T FulRan=T
         wScrn=  0.000000 ICntrl=       500 IOpCl=  0 I1Cent=   200000004 NGrid=           0
         NMat0=    1 NMatS0=      1 NMatT0=    0 NMatD0=    1 NMtDS0=    0 NMtDT0=    0
 Symmetry not used in FoFCou.
 Requested convergence on RMS density matrix=1.00D-08 within 128 cycles.
 Requested convergence on MAX density matrix=1.00D-06.
 Requested convergence on             energy=1.00D-06.
 No special actions if energy rises.
 Integral accuracy reduced to 1.0D-05 until final iterations.
 Initial convergence to 1.0D-05 achieved.  Increase integral accuracy.
 SCF Done:  E(UwB97XD) =  -371.540210269     A.U. after   12 cycles
            NFock= 12  Conv=0.60D-08     -V/T= 2.0039
 <Sx>= 0.0000 <Sy>= 0.0000 <Sz>= 0.0000 <S**2>=-0.0000 S=-0.0000
 <L.S>=  0.00000000000    
 Annihilation of the first spin contaminant:
 S**2 before annihilation    -0.0000,   after    -0.0000
 DoSCS=F DFT=T ScalE2(SS,OS)=  1.000000  1.000000
 Range of M.O.s used for correlation:     1   229
 NBasis=   229 NAE=    25 NBE=    25 NFC=     0 NFV=     0
 NROrb=    229 NOA=    25 NOB=    25 NVA=   204 NVB=   204

 **** Warning!!: The largest alpha MO coefficient is  0.24518119D+02


 **** Warning!!: The largest beta MO coefficient is  0.24518119D+02

 Symmetrizing basis deriv contribution to polar:
 IMax=3 JMax=2 DiffMx= 0.00D+00
   1 Symmetry operations used in ECPInt.
 ECPInt:  NShTT=    3655 NPrTT=   11788 LenC2=    3472 LenP2D=    8582.
 LDataN:  DoStor=T MaxTD1= 7 Len=  274
 Calling FoFJK, ICntrl=      2147 FMM=F ISym2X=0 I1Cent= 0 IOpClX= 1 NMat=1 NMatS=1 NMatT=0.
 -------------------------------------------------------------------
 Center     Atomic                   Forces (Hartrees/Bohr)
 Number     Number              X              Y              Z
 -------------------------------------------------------------------
      1        7          -0.000364923    0.001336253   -0.005504048
      2        6           0.000203551   -0.000350772    0.002296361
      3        7          -0.000032703    0.000020210    0.000036316
      4        7          -0.000024814    0.000023161   -0.000027309
      5        8           0.000013242    0.000096036   -0.000041517
      6        7           0.000100260   -0.000117475   -0.000005585
      7        6           0.000038826    0.000166248    0.000187632
      8        1           0.000062243   -0.001162687    0.003018441
      9        1           0.000004318   -0.000010975    0.000039708
 -------------------------------------------------------------------
 Cartesian Forces:  Max     0.005504048 RMS     0.001336434
 IRC-IRC-IRC-IRC-IRC-IRC-IRC-IRC-IRC-IRC-IRC-IRC-IRC-IRC-IRC-IRC-IRC-IRC
 Pt  4 Step number   1 out of a maximum of  20
 Modified Bulirsch-Stoer Extrapolation Cycles:
    EPS =    0.000010000000000
      PEZero:  N= 2 I= 1 D=  2.94D-04 Err=  1.57D-05
      PEZero:  N= 3 I= 2 D=  2.94D-04 Err=  1.05D-05
      PEZero:  N= 3 I= 1 D=  5.87D-04 Err=  6.56D-08
 Maximum DWI energy   std dev =  0.000000293 at pt    42
 Maximum DWI gradient std dev =  0.079712625 at pt    28
 CORRECTOR INTEGRATION CONVERGENCE:
   Recorrection delta-x convergence threshold:    0.010000
   Delta-x Convergence Met
 Point Number:   4          Path Number:   1
   CHANGE IN THE REACTION COORDINATE =    0.05636
   NET REACTION COORDINATE UP TO THIS POINT =    0.22246
  # OF POINTS ALONG THE PATH =   4
  # OF STEPS =   1

 Calculating another point on the path.
 IRC-IRC-IRC-IRC-IRC-IRC-IRC-IRC-IRC-IRC-IRC-IRC-IRC-IRC-IRC-IRC-IRC-IRC
                          Input orientation:                          
 ---------------------------------------------------------------------
 Center     Atomic      Atomic             Coordinates (Angstroms)
 Number     Number       Type             X           Y           Z
 ---------------------------------------------------------------------
      1          7           0       -0.466513    2.354128   -0.046769
      2          6           0       -1.017823    1.330274    0.021016
      3          7           0        2.513081    0.217294    0.016138
      4          7           0        2.963861   -0.772463    0.015460
      5          8           0       -1.455830   -2.036129   -0.013285
      6          7           0       -0.860645   -0.976877   -0.058579
      7          6           0       -1.658567    0.147838    0.062561
      8          1           0        0.047342    3.198481    0.053527
      9          1           0       -2.732855    0.094119    0.188907
 ---------------------------------------------------------------------
                    Distance matrix (angstroms):
                    1          2          3          4          5
     1  N    0.000000
     2  C    1.164823   0.000000
     3  N    3.667151   3.702166   0.000000
     4  N    4.641865   4.502815   1.087576   0.000000
     5  O    4.500469   3.394952   4.564103   4.596885   0.000000
     6  N    3.354262   2.313868   3.579617   3.830681   1.215858
     7  C    2.510111   1.345524   4.172485   4.713386   2.194668
     8  H    0.993498   2.150774   3.868946   4.927061   5.446570
     9  H    3.209282   2.120756   5.250226   5.764861   2.491912
                    6          7          8          9
     6  N    0.000000
     7  C    1.384319   0.000000
     8  H    4.274415   3.495229   0.000000
     9  H    2.171048   1.083026   4.169519   0.000000
 Symmetry turned off by external request.
 Stoichiometry    C2H2N4O
 Framework group  C1[X(C2H2N4O)]
 Deg. of freedom    21
 Full point group                 C1      NOp   1
 Rotational constants (GHZ):           2.5486673           1.6202328           0.9912271
 Standard basis: def2TZVP (5D, 7F)
   229 basis functions,   373 primitive gaussians,   264 cartesian basis functions
    25 alpha electrons       25 beta electrons
       nuclear repulsion energy       229.8583514485 Hartrees.
 NAtoms=    9 NActive=    9 NUniq=    9 SFac= 1.00D+00 NAtFMM=   60 NAOKFM=F Big=F
 Integral buffers will be    131072 words long.
 Raffenetti 2 integral format.
 Two-electron integral symmetry is turned off.
 Nuclear repulsion after empirical dispersion term =      229.8561497411 Hartrees.
 One-electron integrals computed using PRISM.
   1 Symmetry operations used in ECPInt.
 ECPInt:  NShTT=    3655 NPrTT=   11788 LenC2=    3472 LenP2D=    8582.
 LDataN:  DoStor=T MaxTD1= 6 Len=  172
 NBasis=   229 RedAO= T EigKep=  7.36D-05  NBF=   229
 NBsUse=   229 1.00D-06 EigRej= -1.00D+00 NBFU=   229
 Initial guess from the checkpoint file:  "/scratch/23935644/Gau-2511.chk"
 B after Tr=     0.000063   -0.000088    0.000478
         Rot=    1.000000   -0.000198    0.000001    0.000010 Ang=  -0.02 deg.
 Initial guess <Sx>= 0.0000 <Sy>= 0.0000 <Sz>= 0.0000 <S**2>= 0.0000 S= 0.0000
 ExpMin= 9.52D-02 ExpMax= 2.70D+04 ExpMxC= 9.22D+02 IAcc=2 IRadAn=         4 AccDes= 0.00D+00
 Harris functional with IExCor= 4639 and IRadAn=       4 diagonalized for initial guess.
 HarFok:  IExCor= 4639 AccDes= 0.00D+00 IRadAn=         4 IDoV= 1 UseB2=F ITyADJ=14
 ICtDFT=  3500011 ScaDFX=  1.000000  1.000000  1.000000  1.000000
 FoFCou: FMM=F IPFlag=           0 FMFlag=      100000 FMFlg1=           0
         NFxFlg=           0 DoJE=T BraDBF=F KetDBF=T FulRan=T
         wScrn=  0.000000 ICntrl=       500 IOpCl=  0 I1Cent=   200000004 NGrid=           0
         NMat0=    1 NMatS0=      1 NMatT0=    0 NMatD0=    1 NMtDS0=    0 NMtDT0=    0
 Symmetry not used in FoFCou.
 Requested convergence on RMS density matrix=1.00D-08 within 128 cycles.
 Requested convergence on MAX density matrix=1.00D-06.
 Requested convergence on             energy=1.00D-06.
 No special actions if energy rises.
 Integral accuracy reduced to 1.0D-05 until final iterations.
 Initial convergence to 1.0D-05 achieved.  Increase integral accuracy.
 SCF Done:  E(UwB97XD) =  -371.540433743     A.U. after   12 cycles
            NFock= 12  Conv=0.76D-08     -V/T= 2.0039
 <Sx>= 0.0000 <Sy>= 0.0000 <Sz>= 0.0000 <S**2>=-0.0000 S=-0.0000
 <L.S>=  0.00000000000    
 Annihilation of the first spin contaminant:
 S**2 before annihilation    -0.0000,   after    -0.0000
 DoSCS=F DFT=T ScalE2(SS,OS)=  1.000000  1.000000
 Range of M.O.s used for correlation:     1   229
 NBasis=   229 NAE=    25 NBE=    25 NFC=     0 NFV=     0
 NROrb=    229 NOA=    25 NOB=    25 NVA=   204 NVB=   204

 **** Warning!!: The largest alpha MO coefficient is  0.24215380D+02


 **** Warning!!: The largest beta MO coefficient is  0.24215380D+02

 Symmetrizing basis deriv contribution to polar:
 IMax=3 JMax=2 DiffMx= 0.00D+00
   1 Symmetry operations used in ECPInt.
 ECPInt:  NShTT=    3655 NPrTT=   11788 LenC2=    3472 LenP2D=    8582.
 LDataN:  DoStor=T MaxTD1= 7 Len=  274
 Calling FoFJK, ICntrl=      2147 FMM=F ISym2X=0 I1Cent= 0 IOpClX= 1 NMat=1 NMatS=1 NMatT=0.
 -------------------------------------------------------------------
 Center     Atomic                   Forces (Hartrees/Bohr)
 Number     Number              X              Y              Z
 -------------------------------------------------------------------
      1        7          -0.000387742    0.001464233   -0.006839159
      2        6           0.000226824   -0.000401284    0.002886076
      3        7          -0.000033498    0.000020881    0.000051350
      4        7          -0.000024320    0.000023963   -0.000035789
      5        8           0.000006760    0.000142240   -0.000047266
      6        7           0.000135586   -0.000181235   -0.000030589
      7        6           0.000047087    0.000255538    0.000231610
      8        1           0.000022870   -0.001311284    0.003729984
      9        1           0.000006433   -0.000013053    0.000053782
 -------------------------------------------------------------------
 Cartesian Forces:  Max     0.006839159 RMS     0.001649340
 IRC-IRC-IRC-IRC-IRC-IRC-IRC-IRC-IRC-IRC-IRC-IRC-IRC-IRC-IRC-IRC-IRC-IRC
 Pt  5 Step number   1 out of a maximum of  20
 Modified Bulirsch-Stoer Extrapolation Cycles:
    EPS =    0.000010000000000
      PEZero:  N= 2 I= 1 D=  2.94D-04 Err=  7.65D-06
 Maximum DWI energy   std dev =  0.000000281 at pt    26
 Maximum DWI gradient std dev =  0.063605832 at pt    38
 CORRECTOR INTEGRATION CONVERGENCE:
   Recorrection delta-x convergence threshold:    0.010000
   Delta-x Convergence Met
 Point Number:   5          Path Number:   1
   CHANGE IN THE REACTION COORDINATE =    0.05637
   NET REACTION COORDINATE UP TO THIS POINT =    0.27883
  # OF POINTS ALONG THE PATH =   5
  # OF STEPS =   1

 Calculating another point on the path.
 IRC-IRC-IRC-IRC-IRC-IRC-IRC-IRC-IRC-IRC-IRC-IRC-IRC-IRC-IRC-IRC-IRC-IRC
                          Input orientation:                          
 ---------------------------------------------------------------------
 Center     Atomic      Atomic             Coordinates (Angstroms)
 Number     Number       Type             X           Y           Z
 ---------------------------------------------------------------------
      1          7           0       -0.466876    2.354479   -0.050097
      2          6           0       -1.017662    1.330120    0.022664
      3          7           0        2.513066    0.217303    0.016164
      4          7           0        2.963850   -0.772452    0.015442
      5          8           0       -1.455830   -2.036061   -0.013305
      6          7           0       -0.860573   -0.976976   -0.058599
      7          6           0       -1.658542    0.147996    0.062694
      8          1           0        0.049623    3.193563    0.079285
      9          1           0       -2.732797    0.094038    0.189291
 ---------------------------------------------------------------------
                    Distance matrix (angstroms):
                    1          2          3          4          5
     1  N    0.000000
     2  C    1.165321   0.000000
     3  N    3.667692   3.701952   0.000000
     4  N    4.642400   4.502588   1.087576   0.000000
     5  O    4.500692   3.394769   4.564061   4.596858   0.000000
     6  N    3.354649   2.313865   3.579572   3.830604   1.215748
     7  C    2.510251   1.345268   4.172443   4.713381   2.194761
     8  H    0.993767   2.148191   3.864021   4.921998   5.442787
     9  H    3.209564   2.120696   5.250167   5.764791   2.491789
                    6          7          8          9
     6  N    0.000000
     7  C    1.384568   0.000000
     8  H    4.270933   3.491931   0.000000
     9  H    2.171116   1.083034   4.166656   0.000000
 Symmetry turned off by external request.
 Stoichiometry    C2H2N4O
 Framework group  C1[X(C2H2N4O)]
 Deg. of freedom    21
 Full point group                 C1      NOp   1
 Rotational constants (GHZ):           2.5487381           1.6202057           0.9912635
 Standard basis: def2TZVP (5D, 7F)
   229 basis functions,   373 primitive gaussians,   264 cartesian basis functions
    25 alpha electrons       25 beta electrons
       nuclear repulsion energy       229.8546243763 Hartrees.
 NAtoms=    9 NActive=    9 NUniq=    9 SFac= 1.00D+00 NAtFMM=   60 NAOKFM=F Big=F
 Integral buffers will be    131072 words long.
 Raffenetti 2 integral format.
 Two-electron integral symmetry is turned off.
 Nuclear repulsion after empirical dispersion term =      229.8524221282 Hartrees.
 One-electron integrals computed using PRISM.
   1 Symmetry operations used in ECPInt.
 ECPInt:  NShTT=    3655 NPrTT=   11788 LenC2=    3472 LenP2D=    8582.
 LDataN:  DoStor=T MaxTD1= 6 Len=  172
 NBasis=   229 RedAO= T EigKep=  7.42D-05  NBF=   229
 NBsUse=   229 1.00D-06 EigRej= -1.00D+00 NBFU=   229
 Initial guess from the checkpoint file:  "/scratch/23935644/Gau-2511.chk"
 B after Tr=     0.000046   -0.000095    0.000478
         Rot=    1.000000   -0.000198    0.000001    0.000007 Ang=  -0.02 deg.
 Initial guess <Sx>= 0.0000 <Sy>= 0.0000 <Sz>= 0.0000 <S**2>=-0.0000 S=-0.0000
 ExpMin= 9.52D-02 ExpMax= 2.70D+04 ExpMxC= 9.22D+02 IAcc=2 IRadAn=         4 AccDes= 0.00D+00
 Harris functional with IExCor= 4639 and IRadAn=       4 diagonalized for initial guess.
 HarFok:  IExCor= 4639 AccDes= 0.00D+00 IRadAn=         4 IDoV= 1 UseB2=F ITyADJ=14
 ICtDFT=  3500011 ScaDFX=  1.000000  1.000000  1.000000  1.000000
 FoFCou: FMM=F IPFlag=           0 FMFlag=      100000 FMFlg1=           0
         NFxFlg=           0 DoJE=T BraDBF=F KetDBF=T FulRan=T
         wScrn=  0.000000 ICntrl=       500 IOpCl=  0 I1Cent=   200000004 NGrid=           0
         NMat0=    1 NMatS0=      1 NMatT0=    0 NMatD0=    1 NMtDS0=    0 NMtDT0=    0
 Symmetry not used in FoFCou.
 Requested convergence on RMS density matrix=1.00D-08 within 128 cycles.
 Requested convergence on MAX density matrix=1.00D-06.
 Requested convergence on             energy=1.00D-06.
 No special actions if energy rises.
 Integral accuracy reduced to 1.0D-05 until final iterations.
 Initial convergence to 1.0D-05 achieved.  Increase integral accuracy.
 SCF Done:  E(UwB97XD) =  -371.540703578     A.U. after   12 cycles
            NFock= 12  Conv=0.83D-08     -V/T= 2.0039
 <Sx>= 0.0000 <Sy>= 0.0000 <Sz>= 0.0000 <S**2>=-0.0000 S=-0.0000
 <L.S>=  0.00000000000    
 Annihilation of the first spin contaminant:
[...]
 ECPInt:  NShTT=    3655 NPrTT=   11788 LenC2=    3475 LenP2D=    8594.
 LDataN:  DoStor=T MaxTD1= 6 Len=  172
 NBasis=   229 RedAO= T EigKep=  7.13D-05  NBF=   229
 NBsUse=   229 1.00D-06 EigRej= -1.00D+00 NBFU=   229
 Initial guess from the checkpoint file:  "/scratch/23935644/Gau-2511.chk"
 B after Tr=    -0.000036   -0.000304    0.000810
         Rot=    1.000000   -0.000242   -0.000034   -0.000012 Ang=  -0.03 deg.
 Initial guess <Sx>= 0.0000 <Sy>= 0.0000 <Sz>= 0.0000 <S**2>= 0.0000 S= 0.0000
 ExpMin= 9.52D-02 ExpMax= 2.70D+04 ExpMxC= 9.22D+02 IAcc=2 IRadAn=         4 AccDes= 0.00D+00
 Harris functional with IExCor= 4639 and IRadAn=       4 diagonalized for initial guess.
 HarFok:  IExCor= 4639 AccDes= 0.00D+00 IRadAn=         4 IDoV= 1 UseB2=F ITyADJ=14
 ICtDFT=  3500011 ScaDFX=  1.000000  1.000000  1.000000  1.000000
 FoFCou: FMM=F IPFlag=           0 FMFlag=      100000 FMFlg1=           0
         NFxFlg=           0 DoJE=T BraDBF=F KetDBF=T FulRan=T
         wScrn=  0.000000 ICntrl=       500 IOpCl=  0 I1Cent=   200000004 NGrid=           0
         NMat0=    1 NMatS0=      1 NMatT0=    0 NMatD0=    1 NMtDS0=    0 NMtDT0=    0
 Symmetry not used in FoFCou.
 Requested convergence on RMS density matrix=1.00D-08 within 128 cycles.
 Requested convergence on MAX density matrix=1.00D-06.
 Requested convergence on             energy=1.00D-06.
 No special actions if energy rises.
 Integral accuracy reduced to 1.0D-05 until final iterations.
 Initial convergence to 1.0D-05 achieved.  Increase integral accuracy.
 SCF Done:  E(UwB97XD) =  -371.550886213     A.U. after   13 cycles
            NFock= 13  Conv=0.69D-08     -V/T= 2.0038
 <Sx>= 0.0000 <Sy>= 0.0000 <Sz>= 0.0000 <S**2>=-0.0000 S=-0.0000
 <L.S>=  0.00000000000    
 Annihilation of the first spin contaminant:
 S**2 before annihilation    -0.0000,   after     0.0000
 DoSCS=F DFT=T ScalE2(SS,OS)=  1.000000  1.000000
 Range of M.O.s used for correlation:     1   229
 NBasis=   229 NAE=    25 NBE=    25 NFC=     0 NFV=     0
 NROrb=    229 NOA=    25 NOB=    25 NVA=   204 NVB=   204

 **** Warning!!: The largest alpha MO coefficient is  0.29489597D+02


 **** Warning!!: The largest beta MO coefficient is  0.29489597D+02

 Symmetrizing basis deriv contribution to polar:
 IMax=3 JMax=2 DiffMx= 0.00D+00
   1 Symmetry operations used in ECPInt.
 ECPInt:  NShTT=    3655 NPrTT=   11788 LenC2=    3475 LenP2D=    8594.
 LDataN:  DoStor=T MaxTD1= 7 Len=  274
 Calling FoFJK, ICntrl=      2147 FMM=F ISym2X=0 I1Cent= 0 IOpClX= 1 NMat=1 NMatS=1 NMatT=0.
 -------------------------------------------------------------------
 Center     Atomic                   Forces (Hartrees/Bohr)
 Number     Number              X              Y              Z
 -------------------------------------------------------------------
      1        7          -0.000662216   -0.000357361   -0.001464080
      2        6           0.000054559   -0.000092205    0.000192132
      3        7           0.000012594   -0.000044424    0.000371940
      4        7           0.000033904    0.000041410   -0.000218117
      5        8          -0.000076004   -0.000071140    0.000166304
      6        7          -0.000090580   -0.000034548   -0.000456242
      7        6           0.000034284   -0.000173336    0.000312655
      8        1           0.000667624    0.000720866    0.001161350
      9        1           0.000025834    0.000010738   -0.000065942
 -------------------------------------------------------------------
 Cartesian Forces:  Max     0.001464080 RMS     0.000457583
 IRC-IRC-IRC-IRC-IRC-IRC-IRC-IRC-IRC-IRC-IRC-IRC-IRC-IRC-IRC-IRC-IRC-IRC
 Error in corrector energy =          -0.0000095987
 Magnitude of corrector gradient =     0.0012069743
 Magnitude of analytic gradient =      0.0023776728
 Magnitude of difference =             0.0027392658
 Angle between gradients (degrees)=   93.9308
 Pt 33 Step number  18 out of a maximum of  20
 Modified Bulirsch-Stoer Extrapolation Cycles:
    EPS =    0.000010000000000
      PEZero:  N= 2 I= 1 D=  2.86D-04 Err=  1.61D-02
      PEZero:  N= 3 I= 2 D=  2.86D-04 Err=  1.31D-03
      PEZero:  N= 3 I= 1 D=  5.71D-04 Err=  1.41D-02
      PEZero:  N= 4 I= 3 D=  1.43D-04 Err=  9.73D-05
      PEZero:  N= 4 I= 2 D=  4.28D-04 Err=  1.25D-03
      PEZero:  N= 5 I= 4 D=  1.43D-04 Err=  6.49D-05
      PEZero:  N= 5 I= 3 D=  2.86D-04 Err=  9.44D-08
      PEZero:  N= 5 I= 2 D=  5.71D-04 Err=  6.57D-04
 Maximum DWI energy   std dev =  0.000003260 at pt    -1
 Maximum DWI gradient std dev =  0.731794539 at pt    40
 CORRECTOR INTEGRATION CONVERGENCE:
   Recorrection delta-x convergence threshold:    0.010000
   Delta-x Convergence NOT Met
 IRC-IRC-IRC-IRC-IRC-IRC-IRC-IRC-IRC-IRC-IRC-IRC-IRC-IRC-IRC-IRC-IRC-IRC
                          Input orientation:                          
 ---------------------------------------------------------------------
 Center     Atomic      Atomic             Coordinates (Angstroms)
 Number     Number       Type             X           Y           Z
 ---------------------------------------------------------------------
      1          7           0       -0.466371    2.374667   -0.118124
      2          6           0       -1.023502    1.325332    0.038786
      3          7           0        2.513018    0.217161    0.024098
      4          7           0        2.964666   -0.772181    0.010767
      5          8           0       -1.461632   -2.028397   -0.012942
      6          7           0       -0.850436   -0.988268   -0.064340
      7          6           0       -1.651648    0.157769    0.082072
      8          1           0       -0.039392    2.868138    0.659671
      9          1           0       -2.720555    0.081539    0.240443
 ---------------------------------------------------------------------
                    Distance matrix (angstroms):
                    1          2          3          4          5
     1  N    0.000000
     2  C    1.198382   0.000000
     3  N    3.681279   3.706107   0.000000
     4  N    4.657390   4.506199   1.087640   0.000000
     5  O    4.515372   3.382622   4.565276   4.601169   0.000000
     6  N    3.385222   2.322355   3.574031   3.821954   1.207506
     7  C    2.521824   1.326516   4.165493   4.709591   2.196464
     8  H    1.015278   1.932413   3.734492   4.764175   5.143076
     9  H    3.235483   2.113688   5.239798   5.753549   2.470004
                    6          7          8          9
     6  N    0.000000
     7  C    1.405979   0.000000
     8  H    4.006726   3.206102   0.000000
     9  H    2.175942   1.083261   3.889668   0.000000
 Symmetry turned off by external request.
 Stoichiometry    C2H2N4O
 Framework group  C1[X(C2H2N4O)]
 Deg. of freedom    21
 Full point group                 C1      NOp   1
 Rotational constants (GHZ):           2.5525126           1.6172953           0.9933647
 Standard basis: def2TZVP (5D, 7F)
   229 basis functions,   373 primitive gaussians,   264 cartesian basis functions
    25 alpha electrons       25 beta electrons
       nuclear repulsion energy       229.6226187745 Hartrees.
 NAtoms=    9 NActive=    9 NUniq=    9 SFac= 1.00D+00 NAtFMM=   60 NAOKFM=F Big=F
 Integral buffers will be    131072 words long.
 Raffenetti 2 integral format.
 Two-electron integral symmetry is turned off.
 Nuclear repulsion after empirical dispersion term =      229.6203770821 Hartrees.
 One-electron integrals computed using PRISM.
   1 Symmetry operations used in ECPInt.
 ECPInt:  NShTT=    3655 NPrTT=   11788 LenC2=    3475 LenP2D=    8594.
 LDataN:  DoStor=T MaxTD1= 6 Len=  172
 NBasis=   229 RedAO= T EigKep=  7.14D-05  NBF=   229
 NBsUse=   229 1.00D-06 EigRej= -1.00D+00 NBFU=   229
 Initial guess from the checkpoint file:  "/scratch/23935644/Gau-2511.chk"
 B after Tr=     0.000036    0.000304   -0.000810
         Rot=    1.000000    0.000242    0.000034    0.000012 Ang=   0.03 deg.
 Initial guess <Sx>= 0.0000 <Sy>= 0.0000 <Sz>= 0.0000 <S**2>=-0.0000 S=-0.0000
 ExpMin= 9.52D-02 ExpMax= 2.70D+04 ExpMxC= 9.22D+02 IAcc=2 IRadAn=         4 AccDes= 0.00D+00
 Harris functional with IExCor= 4639 and IRadAn=       4 diagonalized for initial guess.
 HarFok:  IExCor= 4639 AccDes= 0.00D+00 IRadAn=         4 IDoV= 1 UseB2=F ITyADJ=14
 ICtDFT=  3500011 ScaDFX=  1.000000  1.000000  1.000000  1.000000
 FoFCou: FMM=F IPFlag=           0 FMFlag=      100000 FMFlg1=           0
         NFxFlg=           0 DoJE=T BraDBF=F KetDBF=T FulRan=T
         wScrn=  0.000000 ICntrl=       500 IOpCl=  0 I1Cent=   200000004 NGrid=           0
         NMat0=    1 NMatS0=      1 NMatT0=    0 NMatD0=    1 NMtDS0=    0 NMtDT0=    0
 Symmetry not used in FoFCou.
 Requested convergence on RMS density matrix=1.00D-08 within 128 cycles.
 Requested convergence on MAX density matrix=1.00D-06.
 Requested convergence on             energy=1.00D-06.
 No special actions if energy rises.
 Integral accuracy reduced to 1.0D-05 until final iterations.
 Initial convergence to 1.0D-05 achieved.  Increase integral accuracy.
 SCF Done:  E(UwB97XD) =  -371.550886345     A.U. after   13 cycles
            NFock= 13  Conv=0.55D-08     -V/T= 2.0039
 <Sx>= 0.0000 <Sy>= 0.0000 <Sz>= 0.0000 <S**2>=-0.0000 S=-0.0000
 <L.S>=  0.00000000000    
 Annihilation of the first spin contaminant:
 S**2 before annihilation    -0.0000,   after    -0.0000
 DoSCS=F DFT=T ScalE2(SS,OS)=  1.000000  1.000000
 Range of M.O.s used for correlation:     1   229
 NBasis=   229 NAE=    25 NBE=    25 NFC=     0 NFV=     0
 NROrb=    229 NOA=    25 NOB=    25 NVA=   204 NVB=   204

 **** Warning!!: The largest alpha MO coefficient is  0.29487321D+02


 **** Warning!!: The largest beta MO coefficient is  0.29487321D+02

 Symmetrizing basis deriv contribution to polar:
 IMax=3 JMax=2 DiffMx= 0.00D+00
   1 Symmetry operations used in ECPInt.
 ECPInt:  NShTT=    3655 NPrTT=   11788 LenC2=    3475 LenP2D=    8594.
 LDataN:  DoStor=T MaxTD1= 7 Len=  274
 Calling FoFJK, ICntrl=      2147 FMM=F ISym2X=0 I1Cent= 0 IOpClX= 1 NMat=1 NMatS=1 NMatT=0.
 -------------------------------------------------------------------
 Center     Atomic                   Forces (Hartrees/Bohr)
 Number     Number              X              Y              Z
 -------------------------------------------------------------------
      1        7           0.000472573    0.000632549    0.001366601
      2        6           0.000066329    0.000054225   -0.000252183
      3        7           0.000008981   -0.000036513    0.000373775
      4        7           0.000037481    0.000033608   -0.000219210
      5        8          -0.000073680    0.000019762    0.000155557
      6        7          -0.000036275   -0.000121482   -0.000438771
      7        6           0.000168691    0.000123377    0.000372835
      8        1          -0.000648946   -0.000717166   -0.001341690
      9        1           0.000004846    0.000011642   -0.000016914
 -------------------------------------------------------------------
 Cartesian Forces:  Max     0.001366601 RMS     0.000467896
 IRC-IRC-IRC-IRC-IRC-IRC-IRC-IRC-IRC-IRC-IRC-IRC-IRC-IRC-IRC-IRC-IRC-IRC
 Error in corrector energy =          -0.0000098742
 Magnitude of corrector gradient =     0.0013228506
 Magnitude of analytic gradient =      0.0024312583
 Magnitude of difference =             0.0028385317
 Angle between gradients (degrees)=   93.5323
 Pt 33 Step number  19 out of a maximum of  20
 Modified Bulirsch-Stoer Extrapolation Cycles:
    EPS =    0.000010000000000
      PEZero:  N= 2 I= 1 D=  2.86D-04 Err=  1.74D-02
      PEZero:  N= 3 I= 2 D=  2.86D-04 Err=  1.75D-03
      PEZero:  N= 3 I= 1 D=  5.71D-04 Err=  1.48D-02
      PEZero:  N= 4 I= 3 D=  1.43D-04 Err=  4.42D-05
      PEZero:  N= 4 I= 2 D=  4.28D-04 Err=  1.71D-03
      PEZero:  N= 5 I= 4 D=  1.43D-04 Err=  2.95D-05
      PEZero:  N= 5 I= 3 D=  2.86D-04 Err=  7.16D-08
      PEZero:  N= 5 I= 2 D=  5.71D-04 Err=  8.76D-04
 Maximum DWI energy   std dev =  0.000003445 at pt    -1
 Maximum DWI gradient std dev =  0.968144886 at pt    41
 CORRECTOR INTEGRATION CONVERGENCE:
   Recorrection delta-x convergence threshold:    0.010000
   Delta-x Convergence NOT Met
 IRC-IRC-IRC-IRC-IRC-IRC-IRC-IRC-IRC-IRC-IRC-IRC-IRC-IRC-IRC-IRC-IRC-IRC
                          Input orientation:                          
 ---------------------------------------------------------------------
 Center     Atomic      Atomic             Coordinates (Angstroms)
 Number     Number       Type             X           Y           Z
 ---------------------------------------------------------------------
      1          7           0       -0.466158    2.373906   -0.114754
      2          6           0       -1.023677    1.325020    0.038875
      3          7           0        2.513017    0.217162    0.024125
      4          7           0        2.964669   -0.772180    0.010751
      5          8           0       -1.461633   -2.028427   -0.012914
      6          7           0       -0.850449   -0.988312   -0.064443
      7          6           0       -1.651738    0.157640    0.082071
      8          1           0       -0.040114    2.868481    0.657697
      9          1           0       -2.720597    0.081389    0.240940
 ---------------------------------------------------------------------
                    Distance matrix (angstroms):
                    1          2          3          4          5
     1  N    0.000000
     2  C    1.197744   0.000000
     3  N    3.680531   3.706180   0.000000
     4  N    4.656627   4.506211   1.087642   0.000000
     5  O    4.514630   3.382321   4.565291   4.601181   0.000000
     6  N    3.384482   2.322108   3.574061   3.821974   1.207494
     7  C    2.521146   1.326312   4.165583   4.709656   2.196373
     8  H    1.011335   1.931996   3.734887   4.764627   5.142971
     9  H    3.234911   2.113525   5.239862   5.753591   2.469971
                    6          7          8          9
     6  N    0.000000
     7  C    1.405965   0.000000
     8  H    4.006617   3.205829   0.000000
     9  H    2.176000   1.083288   3.889287   0.000000
 Symmetry turned off by external request.
 Stoichiometry    C2H2N4O
 Framework group  C1[X(C2H2N4O)]
 Deg. of freedom    21
 Full point group                 C1      NOp   1
 Rotational constants (GHZ):           2.5534014           1.6173346           0.9934624
 Standard basis: def2TZVP (5D, 7F)
   229 basis functions,   373 primitive gaussians,   264 cartesian basis functions
    25 alpha electrons       25 beta electrons
       nuclear repulsion energy       229.6590116803 Hartrees.
 NAtoms=    9 NActive=    9 NUniq=    9 SFac= 1.00D+00 NAtFMM=   60 NAOKFM=F Big=F
 Integral buffers will be    131072 words long.
 Raffenetti 2 integral format.
 Two-electron integral symmetry is turned off.
 Nuclear repulsion after empirical dispersion term =      229.6567698743 Hartrees.
 One-electron integrals computed using PRISM.
   1 Symmetry operations used in ECPInt.
 ECPInt:  NShTT=    3655 NPrTT=   11788 LenC2=    3475 LenP2D=    8594.
 LDataN:  DoStor=T MaxTD1= 6 Len=  172
 NBasis=   229 RedAO= T EigKep=  7.13D-05  NBF=   229
 NBsUse=   229 1.00D-06 EigRej= -1.00D+00 NBFU=   229
 Initial guess from the checkpoint file:  "/scratch/23935644/Gau-2511.chk"
 B after Tr=    -0.000036   -0.000304    0.000810
         Rot=    1.000000   -0.000242   -0.000034   -0.000012 Ang=  -0.03 deg.
 Initial guess <Sx>= 0.0000 <Sy>= 0.0000 <Sz>= 0.0000 <S**2>=-0.0000 S=-0.0000
 ExpMin= 9.52D-02 ExpMax= 2.70D+04 ExpMxC= 9.22D+02 IAcc=2 IRadAn=         4 AccDes= 0.00D+00
 Harris functional with IExCor= 4639 and IRadAn=       4 diagonalized for initial guess.
 HarFok:  IExCor= 4639 AccDes= 0.00D+00 IRadAn=         4 IDoV= 1 UseB2=F ITyADJ=14
 ICtDFT=  3500011 ScaDFX=  1.000000  1.000000  1.000000  1.000000
 FoFCou: FMM=F IPFlag=           0 FMFlag=      100000 FMFlg1=           0
         NFxFlg=           0 DoJE=T BraDBF=F KetDBF=T FulRan=T
         wScrn=  0.000000 ICntrl=       500 IOpCl=  0 I1Cent=   200000004 NGrid=           0
         NMat0=    1 NMatS0=      1 NMatT0=    0 NMatD0=    1 NMtDS0=    0 NMtDT0=    0
 Symmetry not used in FoFCou.
 Requested convergence on RMS density matrix=1.00D-08 within 128 cycles.
 Requested convergence on MAX density matrix=1.00D-06.
 Requested convergence on             energy=1.00D-06.
 No special actions if energy rises.
 Integral accuracy reduced to 1.0D-05 until final iterations.
 Initial convergence to 1.0D-05 achieved.  Increase integral accuracy.
 SCF Done:  E(UwB97XD) =  -371.550886213     A.U. after   13 cycles
            NFock= 13  Conv=0.69D-08     -V/T= 2.0038
 <Sx>= 0.0000 <Sy>= 0.0000 <Sz>= 0.0000 <S**2>=-0.0000 S=-0.0000
 <L.S>=  0.00000000000    
 Annihilation of the first spin contaminant:
 S**2 before annihilation    -0.0000,   after     0.0000
 DoSCS=F DFT=T ScalE2(SS,OS)=  1.000000  1.000000
 Range of M.O.s used for correlation:     1   229
 NBasis=   229 NAE=    25 NBE=    25 NFC=     0 NFV=     0
 NROrb=    229 NOA=    25 NOB=    25 NVA=   204 NVB=   204

 **** Warning!!: The largest alpha MO coefficient is  0.29489597D+02


 **** Warning!!: The largest beta MO coefficient is  0.29489597D+02

 Symmetrizing basis deriv contribution to polar:
 IMax=3 JMax=2 DiffMx= 0.00D+00
   1 Symmetry operations used in ECPInt.
 ECPInt:  NShTT=    3655 NPrTT=   11788 LenC2=    3475 LenP2D=    8594.
 LDataN:  DoStor=T MaxTD1= 7 Len=  274
 Calling FoFJK, ICntrl=      2147 FMM=F ISym2X=0 I1Cent= 0 IOpClX= 1 NMat=1 NMatS=1 NMatT=0.
 -------------------------------------------------------------------
 Center     Atomic                   Forces (Hartrees/Bohr)
 Number     Number              X              Y              Z
 -------------------------------------------------------------------
      1        7          -0.000662224   -0.000357373   -0.001464089
      2        6           0.000054561   -0.000092202    0.000192131
      3        7           0.000012594   -0.000044424    0.000371940
      4        7           0.000033904    0.000041410   -0.000218117
      5        8          -0.000076004   -0.000071139    0.000166305
      6        7          -0.000090580   -0.000034548   -0.000456243
      7        6           0.000034284   -0.000173336    0.000312656
      8        1           0.000667630    0.000720873    0.001161360
      9        1           0.000025835    0.000010738   -0.000065942
 -------------------------------------------------------------------
 Cartesian Forces:  Max     0.001464089 RMS     0.000457587
 IRC-IRC-IRC-IRC-IRC-IRC-IRC-IRC-IRC-IRC-IRC-IRC-IRC-IRC-IRC-IRC-IRC-IRC
 Error in corrector energy =          -0.0000095988
 Magnitude of corrector gradient =     0.0012069689
 Magnitude of analytic gradient =      0.0023776915
 Magnitude of difference =             0.0027392746
 Angle between gradients (degrees)=   93.9306
 Pt 33 Step number  20 out of a maximum of  20
 Modified Bulirsch-Stoer Extrapolation Cycles:
    EPS =    0.000010000000000
      PEZero:  N= 2 I= 1 D=  2.86D-04 Err=  1.61D-02
      PEZero:  N= 3 I= 2 D=  2.86D-04 Err=  1.31D-03
      PEZero:  N= 3 I= 1 D=  5.71D-04 Err=  1.41D-02
      PEZero:  N= 4 I= 3 D=  1.43D-04 Err=  9.73D-05
      PEZero:  N= 4 I= 2 D=  4.28D-04 Err=  1.25D-03
      PEZero:  N= 5 I= 4 D=  1.43D-04 Err=  6.49D-05
      PEZero:  N= 5 I= 3 D=  2.86D-04 Err=  9.44D-08
      PEZero:  N= 5 I= 2 D=  5.71D-04 Err=  6.57D-04
 Maximum DWI energy   std dev =  0.000003260 at pt    -1
 Maximum DWI gradient std dev =  0.731777329 at pt    40
 CORRECTOR INTEGRATION CONVERGENCE:
   Recorrection delta-x convergence threshold:    0.010000
   Delta-x Convergence NOT Met
 Maximum number of corrector steps exceded.
 Error termination via Lnk1e in /software/kemi/g16/avx2/g16/l123.exe at Thu Jun 24 04:42:31 2021.
 Job cpu time:       0 days 11 hours 36 minutes 40.1 seconds.
 Elapsed time:       0 days  2 hours 56 minutes 39.7 seconds.
 File lengths (MBytes):  RWF=     87 Int=      0 D2E=      0 Chk=      7 Scr=      1
