      -----------------------------------------------------------      
     |                   =====================                   |     
     |                           x T B                           |     
     |                   =====================                   |     
     |                         S. Grimme                         |     
     |          Mulliken Center for Theoretical Chemistry        |     
     |                    University of Bonn                     |     
     |                 Version 6.1.4 (SAW190525)                 |     
      -----------------------------------------------------------      

   This program is distributed in the hope that it will be useful,
   but WITHOUT ANY WARRANTY; without even the implied warranty of
   MERCHANTABILITY or FITNESS FOR A PARTICULAR PURPOSE.
   
   FOR NON-COMMERCIAL, ACADEMIA USE ONLY.
   
   Cite this work as:
   S. Grimme, C. Bannwarth, P. Shushkov, J. Comput. Theory Chem., 2017,
   13, 1989-2009. DOI: 10.1021/acs.jctc.7b00118
   C. Bannwarth, S. Ehlert and S. Grimme., J. Comput. Theory Chem., 2019,
   just accepted. DOI: 10.1021/acs.jctc.8b01176
   
   for sTDA-xTB:
   S. Grimme and C. Bannwarth, J. Chem. Phys., 2016, 145, 054103.
   DOI: 10.1063/1.4959605
   
   in the mass-spec context:
   V. Asgeirsson, C. Bauer and S. Grimme, Chem. Sci., 2017, 8, 4879.
   DOI: 10.1039/c7sc00601b
   
   for metadynamics refer to:
   S. Grimme, J. Chem. Theory Comput. Article ASAP, 2019,
   DOI: 10.1021/acs.jctc.9b00143
   
   with help from (in alphabetical order)
   C. Bannwarth, F. Bohle, G. Brandenburg, E. Caldeweyher, M. Checinski,
   S. Dohm, S. Ehlert, S. Ehrlich, F. März, H. Neugebauer, J. Pisarek,
   P. Pracht, P. Shushkov, and S. Spicher.
   
 * started run on 2021/06/02 at 10:00:09.011     

           -------------------------------------------------
          |                Calculation Setup                |
           -------------------------------------------------

          program call               : /groups/kemi/koerstz/opt/xtb/6.1/bin/xtb path_point_15.xyz --gfn2 --acc 0.2 --chrg 0
          hostname                   : node305
          coordinate file            : path_point_15.xyz
          omp threads                :                     1
          number of atoms            :                     9
          number of electrons        :                    36
          charge                     :                     0
          spin                       :                   0.0
          first test random number   :      0.22244863300963


########################################################################
# WARNING! Please study the warnings concerning your input carefully
#  - XTBPATH is not set, using XTBHOME instead
########################################################################

           ------------------------------------------------- 
          |                 G F N 2 - x T B                 |
          | Geometry, Frequencies, Noncovalent interactions |
          |            JCTC 2018 parametrisation            |
           ------------------------------------------------- 
             k(s)              :                1.8500
             k(p)              :                2.2300
             k(d)              :                2.2300
             k(f)              :                2.0000
             kEN (H0ij)        :               -2.0000
             D4 a1             :                0.5200
             D4 a2             :                5.0000
             D4 s6             :                1.0000
             D4 s8             :                2.7000
             D4 s9             :                5.0000
             alphaj            :                2.0000

  Z AO/shell   Hii/eV     exponent
  1     Wed Apr 25 08:07:45 CEST 2018   EN: 2.200 GM2: 0.406  GM3: 0.0800  RAES: 1.40
     1s    -10.707211    1.230000
  6     Wed Apr 25 08:07:45 CEST 2018   EN: 2.550 GM2: 0.538  GM3: 0.1500  RAES: 3.00
     2s    -13.970922    2.096432
     2p    -10.063292    1.800000
  7     Wed Apr 25 08:07:45 CEST 2018   EN: 3.040 GM2: 0.461  GM3:-0.0640  RAES: 1.90
     2s    -16.686243    2.339881
     2p    -12.523956    2.014332
  8     Wed Apr 25 08:07:45 CEST 2018   EN: 3.440 GM2: 0.452  GM3:-0.0517  RAES: 1.80
     2s    -20.229985    2.439742
     2p    -15.503117    2.137023


            Z     q(EN)     CN     RAES       Cart. coordinates
     1  N   5.0   -0.42    2.02    1.90    -0.96282    -0.30201    -2.42111
     2  C   4.0    0.31    3.01    3.02    -0.83258    -1.63703    -0.38887
     3  N   5.0   -0.15    2.03    1.90    -2.91367    -2.14769     0.94690
     4  N   5.0   -0.15    1.00    1.90    -4.97506    -2.48730     1.43362
     5  O   6.0   -0.10    1.00    1.80     5.77844    -2.63719    -0.47527
     6  N   5.0   -0.14    2.01    1.90     3.53308    -2.46753    -0.55564
     7  C   4.0    0.14    3.01    3.02     1.55306    -2.35797     0.77226
     8  H   1.0    0.33    1.00    1.43    -2.69521     0.34068    -2.94057
     9  H   1.0    0.18    0.99    1.43     1.46955    -2.95617     2.72599

           ------------------------------------------------- 
          |        Self-Consistent Charge Iterations        |
           ------------------------------------------------- 
q/qsh data taken from xtbrestart
CAMM data taken from xtbrestart

          ...................................................
          :                      SETUP                      :
          :.................................................:
          :  # basis functions                  30          :
          :  # atomic orbitals                  30          :
          :  # shells                           16          :
          :  # electrons                        36          :
          :  max. iterations                   250          :
          :  Hamiltonian                  GFN2-xTB          :
          :  restarted?                       true          :
          :  GBSA solvation                  false          :
          :  PC potential                    false          :
          :  electronic temp.          300.0000000     K    :
          :  accuracy                    0.2000000          :
          :  -> integral cutoff          0.3198970E+02      :
          :  -> integral neglect         0.2000000E-08      :
          :  -> SCF convergence          0.2000000E-06 Eh   :
          :  -> wf. convergence          0.2000000E-04 e    :
          :  Broyden damping             0.4000000          :
          ...................................................

 iter      E             dE          RMSdq      gap      omega  full diag
   1    -21.0804713 -0.210805E+02  0.688E-01    0.15       0.0  T
   2    -20.8927106  0.187761E+00  0.377E+00    0.26       1.0  T
   3    -21.0011860 -0.108475E+00  0.254E+00    0.22       1.0  T
   4    -21.0699742 -0.687882E-01  0.102E+00    0.17       1.0  T
   5    -21.0807900 -0.108158E-01  0.360E-01    0.16       1.0  T
   6    -21.0820311 -0.124106E-02  0.154E-01    0.16       1.0  T
   7    -21.0820450 -0.139096E-04  0.136E-01    0.16       1.0  T
   8    -21.0822542 -0.209184E-03  0.337E-02    0.15       1.0  T
   9    -21.0822674 -0.131959E-04  0.557E-03    0.15       6.0  T
  10    -21.0822655  0.187435E-05  0.125E-02    0.15       2.7  T
  11    -21.0822676 -0.206643E-05  0.862E-04    0.15      38.6  T
  12    -21.0822676 -0.582360E-08  0.362E-04    0.15      92.0  T
  13    -21.0822676 -0.115261E-08  0.106E-04    0.15     313.8  T
  14    -21.0822676 -0.102162E-09  0.226E-05    0.15    1476.4  T

   *** convergence criteria satisfied after 14 iterations ***

         #    Occupation            Energy/Eh            Energy/eV
      -------------------------------------------------------------
         1        2.0000           -0.7534814             -20.5033
       ...           ...                  ...                  ...
        12        2.0000           -0.5536921             -15.0667
        13        2.0000           -0.5185669             -14.1109
        14        2.0000           -0.5054054             -13.7528
        15        2.0000           -0.5024562             -13.6725
        16        2.0000           -0.4274450             -11.6314
        17        2.0000           -0.4266593             -11.6100
        18        1.9033           -0.3580034              -9.7418 (HOMO)
        19        0.0967           -0.3523416              -9.5877 (LUMO)
        20                         -0.3360537              -9.1445
        21                         -0.2771801              -7.5425
        22                         -0.1807632              -4.9188
        23                          0.0261874               0.7126
       ...                                ...                  ...
        30                          0.8608336              23.4245
      -------------------------------------------------------------
                  HL-Gap            0.0056618 Eh            0.1541 eV
             Fermi-level           -0.3551725 Eh           -9.6647 eV

 SCC (total)                   0 d,  0 h,  0 min,  0.008 sec
 SCC setup                      ...        0 min,  0.000 sec (  1.690%)
 Dispersion                     ...        0 min,  0.000 sec (  0.806%)
 integral evaluation            ...        0 min,  0.001 sec ( 13.560%)
 zeroth order Hamiltonian       ...        0 min,  0.000 sec (  0.415%)
 iterations                     ...        0 min,  0.004 sec ( 54.654%)
 molecular gradient             ...        0 min,  0.002 sec ( 26.325%)
 printout                       ...        0 min,  0.000 sec (  2.093%)

         :::::::::::::::::::::::::::::::::::::::::::::::::::::
         ::                     SUMMARY                     ::
         :::::::::::::::::::::::::::::::::::::::::::::::::::::
         :: total energy              -20.830955327480 Eh   ::
         :: gradient norm               0.044694846833 Eh/α ::
         :: HOMO-LUMO gap               0.154064793782 eV   ::
         ::.................................................::
         :: SCC energy                -21.082267574282 Eh   ::
         :: -> isotropic ES             0.025530164183 Eh   ::
         :: -> anisotropic ES           0.004482378056 Eh   ::
         :: -> anisotropic XC           0.024234513943 Eh   ::
         :: -> dispersion              -0.005516238619 Eh   ::
         :: repulsion energy            0.251311474810 Eh   ::
         :: add. restraining            0.000000000000 Eh   ::
         :::::::::::::::::::::::::::::::::::::::::::::::::::::

           -------------------------------------------------
          |                Property Printout                |
           -------------------------------------------------

    * Orbital Energies and Occupations

         #    Occupation            Energy/Eh            Energy/eV
      -------------------------------------------------------------
         1        2.0000           -0.7534814             -20.5033
       ...           ...                  ...                  ...
         6        2.0000           -0.6324707             -17.2104
         7        2.0000           -0.6108608             -16.6224
         8        2.0000           -0.6091406             -16.5756
         9        2.0000           -0.5965541             -16.2331
        10        2.0000           -0.5895598             -16.0427
        11        2.0000           -0.5687121             -15.4754
        12        2.0000           -0.5536921             -15.0667
        13        2.0000           -0.5185669             -14.1109
        14        2.0000           -0.5054054             -13.7528
        15        2.0000           -0.5024562             -13.6725
        16        2.0000           -0.4274450             -11.6314
        17        2.0000           -0.4266593             -11.6100
        18        1.9033           -0.3580034              -9.7418 (HOMO)
        19        0.0967           -0.3523416              -9.5877 (LUMO)
        20                         -0.3360537              -9.1445
        21                         -0.2771801              -7.5425
        22                         -0.1807632              -4.9188
        23                          0.0261874               0.7126
        24                          0.0569669               1.5501
        25                          0.1785878               4.8596
        26                          0.1981918               5.3931
        27                          0.3296103               8.9692
        28                          0.4625203              12.5858
        29                          0.6944119              18.8959
        30                          0.8608336              23.4245
      -------------------------------------------------------------
                  HL-Gap            0.0056618 Eh            0.1541 eV
             Fermi-level           -0.3551725 Eh           -9.6647 eV

   #   Z        covCN         q      C6AA      α(0)
   1   7 N      1.790    -0.314    28.979     7.974
   2   6 C      2.815     0.146    24.822     8.163
   3   7 N      1.916     0.130    19.643     6.571
   4   7 N      0.984    -0.101    22.844     6.874
   5   8 O      0.925    -0.254    18.950     5.838
   6   7 N      1.846     0.196    18.579     6.388
   7   6 C      2.832    -0.036    28.890     8.808
   8   1 H      0.860     0.155     1.367     1.831
   9   1 H      0.925     0.079     1.991     2.206

 Mol. C6AA /au·bohr⁶  :       1305.350139
 Mol. C8AA /au·bohr⁸  :      29830.079825
 Mol. α(0) /au        :         54.654051


Wiberg/Mayer (AO) data.
largest (>0.10) Wiberg bond orders for each atom
          total WBO             WBO to atom ...
     1  N   3.080        C    2 1.522    H    8 0.945    N    4 0.159    N    6 0.132    O    5 0.129    N    3 0.125
     2  C   3.931        N    1 1.522    N    3 1.140    C    7 1.062    N    4 0.124
     3  N   3.692        N    4 2.257    C    2 1.140    N    1 0.125
     4  N   2.762        N    3 2.257    N    6 0.163    N    1 0.159    C    2 0.124
     5  O   2.016        N    6 1.511    C    7 0.257    N    1 0.129
     6  N   3.536        C    7 1.609    O    5 1.511    N    4 0.163    N    1 0.132
     7  C   3.944        N    6 1.609    C    2 1.062    H    9 0.908    O    5 0.257
     8  H   0.976        N    1 0.945
     9  H   0.983        C    7 0.908

molecular dipole:
                 x           y           z       tot (Debye)
 q only:       -0.832      -0.080       0.426
   full:       -1.040      -0.098       0.680       3.168
molecular quadrupole (traceless):
                xx          xy          yy          xz          yz          zz
 q only:       -6.547       2.235       3.478       2.233      -1.226       3.069
  q+dip:       -8.897       1.595       4.807       5.045      -2.003       4.090
   full:      -10.063       1.503       5.974       5.676      -1.749       4.088


           -------------------------------------------------
          | TOTAL ENERGY              -20.830955327480 Eh   |
          | GRADIENT NORM               0.044694846833 Eh/α |
          | HOMO-LUMO GAP               0.154064793782 eV   |
           -------------------------------------------------

------------------------------------------------------------------------
 * finished run on 2021/06/02 at 10:00:09.028     
------------------------------------------------------------------------
 total:
 * wall-time:     0 d,  0 h,  0 min,  0.016 sec
 *  cpu-time:     0 d,  0 h,  0 min,  0.016 sec
 * ratio c/w:     0.985 speedup
 SCF:
 * wall-time:     0 d,  0 h,  0 min,  0.008 sec
 *  cpu-time:     0 d,  0 h,  0 min,  0.008 sec
 * ratio c/w:     1.000 speedup

