      -----------------------------------------------------------      
     |                   =====================                   |     
     |                           x T B                           |     
     |                   =====================                   |     
     |                         S. Grimme                         |     
     |          Mulliken Center for Theoretical Chemistry        |     
     |                    University of Bonn                     |     
     |                 Version 6.1.4 (SAW190525)                 |     
      -----------------------------------------------------------      

   This program is distributed in the hope that it will be useful,
   but WITHOUT ANY WARRANTY; without even the implied warranty of
   MERCHANTABILITY or FITNESS FOR A PARTICULAR PURPOSE.
   
   FOR NON-COMMERCIAL, ACADEMIA USE ONLY.
   
   Cite this work as:
   S. Grimme, C. Bannwarth, P. Shushkov, J. Comput. Theory Chem., 2017,
   13, 1989-2009. DOI: 10.1021/acs.jctc.7b00118
   C. Bannwarth, S. Ehlert and S. Grimme., J. Comput. Theory Chem., 2019,
   just accepted. DOI: 10.1021/acs.jctc.8b01176
   
   for sTDA-xTB:
   S. Grimme and C. Bannwarth, J. Chem. Phys., 2016, 145, 054103.
   DOI: 10.1063/1.4959605
   
   in the mass-spec context:
   V. Asgeirsson, C. Bauer and S. Grimme, Chem. Sci., 2017, 8, 4879.
   DOI: 10.1039/c7sc00601b
   
   for metadynamics refer to:
   S. Grimme, J. Chem. Theory Comput. Article ASAP, 2019,
   DOI: 10.1021/acs.jctc.9b00143
   
   with help from (in alphabetical order)
   C. Bannwarth, F. Bohle, G. Brandenburg, E. Caldeweyher, M. Checinski,
   S. Dohm, S. Ehlert, S. Ehrlich, F. März, H. Neugebauer, J. Pisarek,
   P. Pracht, P. Shushkov, and S. Spicher.
   
 * started run on 2021/06/02 at 10:00:08.904     

           -------------------------------------------------
          |                Calculation Setup                |
           -------------------------------------------------

          program call               : /groups/kemi/koerstz/opt/xtb/6.1/bin/xtb path_point_5.xyz --gfn2 --acc 0.2 --chrg 0
          hostname                   : node305
          coordinate file            : path_point_5.xyz
          omp threads                :                     1
          number of atoms            :                     9
          number of electrons        :                    36
          charge                     :                     0
          spin                       :                   0.0
          first test random number   :      0.39922422400399


########################################################################
# WARNING! Please study the warnings concerning your input carefully
#  - XTBPATH is not set, using XTBHOME instead
########################################################################

           ------------------------------------------------- 
          |                 G F N 2 - x T B                 |
          | Geometry, Frequencies, Noncovalent interactions |
          |            JCTC 2018 parametrisation            |
           ------------------------------------------------- 
             k(s)              :                1.8500
             k(p)              :                2.2300
             k(d)              :                2.2300
             k(f)              :                2.0000
             kEN (H0ij)        :               -2.0000
             D4 a1             :                0.5200
             D4 a2             :                5.0000
             D4 s6             :                1.0000
             D4 s8             :                2.7000
             D4 s9             :                5.0000
             alphaj            :                2.0000

  Z AO/shell   Hii/eV     exponent
  1     Wed Apr 25 08:07:45 CEST 2018   EN: 2.200 GM2: 0.406  GM3: 0.0800  RAES: 1.40
     1s    -10.707211    1.230000
  6     Wed Apr 25 08:07:45 CEST 2018   EN: 2.550 GM2: 0.538  GM3: 0.1500  RAES: 3.00
     2s    -13.970922    2.096432
     2p    -10.063292    1.800000
  7     Wed Apr 25 08:07:45 CEST 2018   EN: 3.040 GM2: 0.461  GM3:-0.0640  RAES: 1.90
     2s    -16.686243    2.339881
     2p    -12.523956    2.014332
  8     Wed Apr 25 08:07:45 CEST 2018   EN: 3.440 GM2: 0.452  GM3:-0.0517  RAES: 1.80
     2s    -20.229985    2.439742
     2p    -15.503117    2.137023


            Z     q(EN)     CN     RAES       Cart. coordinates
     1  N   5.0   -0.42    2.01    1.90    -0.94469    -0.31796    -2.43737
     2  C   4.0    0.32    3.01    3.02    -0.84275    -1.65850    -0.40521
     3  N   5.0   -0.15    2.02    1.90    -2.91121    -2.09365     0.98995
     4  N   5.0   -0.15    1.00    1.90    -4.96959    -2.57792     1.38537
     5  O   6.0   -0.10    1.00    1.80     5.79669    -2.60772    -0.58613
     6  N   5.0   -0.15    2.01    1.90     3.52290    -2.55101    -0.49991
     7  C   4.0    0.14    3.01    3.02     1.54463    -2.33997     0.80579
     8  H   1.0    0.33    1.00    1.43    -2.66435     0.40789    -2.91744
     9  H   1.0    0.18    0.99    1.43     1.42316    -2.91336     2.76226

           ------------------------------------------------- 
          |        Self-Consistent Charge Iterations        |
           ------------------------------------------------- 
q/qsh data taken from xtbrestart
CAMM data taken from xtbrestart

          ...................................................
          :                      SETUP                      :
          :.................................................:
          :  # basis functions                  30          :
          :  # atomic orbitals                  30          :
          :  # shells                           16          :
          :  # electrons                        36          :
          :  max. iterations                   250          :
          :  Hamiltonian                  GFN2-xTB          :
          :  restarted?                       true          :
          :  GBSA solvation                  false          :
          :  PC potential                    false          :
          :  electronic temp.          300.0000000     K    :
          :  accuracy                    0.2000000          :
          :  -> integral cutoff          0.3198970E+02      :
          :  -> integral neglect         0.2000000E-08      :
          :  -> SCF convergence          0.2000000E-06 Eh   :
          :  -> wf. convergence          0.2000000E-04 e    :
          :  Broyden damping             0.4000000          :
          ...................................................

 iter      E             dE          RMSdq      gap      omega  full diag
   1    -21.0362391 -0.210362E+02  0.175E+00    0.24       0.0  T
   2    -20.6809606  0.355279E+00  0.586E+00    0.42       1.0  T
   3    -20.9070094 -0.226049E+00  0.368E+00    0.39       1.0  T
   4    -21.0665523 -0.159543E+00  0.884E-01    0.21       1.0  T
   5    -21.0757058 -0.915353E-02  0.212E-01    0.21       1.0  T
   6    -21.0700438  0.566208E-02  0.688E-01    0.20       1.0  T
   7    -21.0761580 -0.611426E-02  0.368E-02    0.20       1.0  T
   8    -21.0761634 -0.542154E-05  0.246E-02    0.20       1.4  T
   9    -21.0761568  0.663549E-05  0.331E-02    0.20       1.0  T
  10    -21.0761710 -0.142107E-04  0.113E-03    0.20      29.6  T
  11    -21.0761710  0.795069E-09  0.770E-04    0.20      43.3  T
  12    -21.0761709  0.784854E-07  0.251E-03    0.20      13.3  T
  13    -21.0761710 -0.768634E-07  0.691E-04    0.20      48.2  T
  14    -21.0761710 -0.614159E-08  0.405E-05    0.20     822.8  T
  15    -21.0761710  0.221217E-09  0.135E-04    0.20     247.1  T

   *** convergence criteria satisfied after 15 iterations ***

         #    Occupation            Energy/Eh            Energy/eV
      -------------------------------------------------------------
         1        2.0000           -0.7513494             -20.4453
       ...           ...                  ...                  ...
        12        2.0000           -0.5540128             -15.0755
        13        2.0000           -0.5166770             -14.0595
        14        2.0000           -0.5056627             -13.7598
        15        2.0000           -0.5007192             -13.6253
        16        2.0000           -0.4303296             -11.7099
        17        2.0000           -0.4270605             -11.6209
        18        1.9605           -0.3588767              -9.7655 (HOMO)
        19        0.0395           -0.3514565              -9.5636 (LUMO)
        20                         -0.3350849              -9.1181
        21                         -0.2819024              -7.6710
        22                         -0.1873434              -5.0979
        23                          0.0188188               0.5121
       ...                                ...                  ...
        30                          0.8366279              22.7658
      -------------------------------------------------------------
                  HL-Gap            0.0074202 Eh            0.2019 eV
             Fermi-level           -0.3551666 Eh           -9.6646 eV

 SCC (total)                   0 d,  0 h,  0 min,  0.008 sec
 SCC setup                      ...        0 min,  0.000 sec (  1.618%)
 Dispersion                     ...        0 min,  0.000 sec (  0.741%)
 integral evaluation            ...        0 min,  0.001 sec ( 13.451%)
 zeroth order Hamiltonian       ...        0 min,  0.000 sec (  0.395%)
 iterations                     ...        0 min,  0.004 sec ( 56.495%)
 molecular gradient             ...        0 min,  0.002 sec ( 24.619%)
 printout                       ...        0 min,  0.000 sec (  2.229%)

         :::::::::::::::::::::::::::::::::::::::::::::::::::::
         ::                     SUMMARY                     ::
         :::::::::::::::::::::::::::::::::::::::::::::::::::::
         :: total energy              -20.829886227176 Eh   ::
         :: gradient norm               0.027635221450 Eh/α ::
         :: HOMO-LUMO gap               0.201913148556 eV   ::
         ::.................................................::
         :: SCC energy                -21.076171011265 Eh   ::
         :: -> isotropic ES             0.025720904532 Eh   ::
         :: -> anisotropic ES           0.004400410138 Eh   ::
         :: -> anisotropic XC           0.024579059973 Eh   ::
         :: -> dispersion              -0.005508115939 Eh   ::
         :: repulsion energy            0.246283930301 Eh   ::
         :: add. restraining            0.000000000000 Eh   ::
         :::::::::::::::::::::::::::::::::::::::::::::::::::::

           -------------------------------------------------
          |                Property Printout                |
           -------------------------------------------------

    * Orbital Energies and Occupations

         #    Occupation            Energy/Eh            Energy/eV
      -------------------------------------------------------------
         1        2.0000           -0.7513494             -20.4453
       ...           ...                  ...                  ...
         6        2.0000           -0.6322598             -17.2047
         7        2.0000           -0.6101425             -16.6028
         8        2.0000           -0.6066790             -16.5086
         9        2.0000           -0.5954433             -16.2028
        10        2.0000           -0.5882189             -16.0063
        11        2.0000           -0.5702174             -15.5164
        12        2.0000           -0.5540128             -15.0755
        13        2.0000           -0.5166770             -14.0595
        14        2.0000           -0.5056627             -13.7598
        15        2.0000           -0.5007192             -13.6253
        16        2.0000           -0.4303296             -11.7099
        17        2.0000           -0.4270605             -11.6209
        18        1.9605           -0.3588767              -9.7655 (HOMO)
        19        0.0395           -0.3514565              -9.5636 (LUMO)
        20                         -0.3350849              -9.1181
        21                         -0.2819024              -7.6710
        22                         -0.1873434              -5.0979
        23                          0.0188188               0.5121
        24                          0.0569362               1.5493
        25                          0.1676811               4.5628
        26                          0.1845702               5.0224
        27                          0.3169618               8.6250
        28                          0.4548553              12.3772
        29                          0.6991973              19.0261
        30                          0.8366279              22.7658
      -------------------------------------------------------------
                  HL-Gap            0.0074202 Eh            0.2019 eV
             Fermi-level           -0.3551666 Eh           -9.6646 eV

   #   Z        covCN         q      C6AA      α(0)
   1   7 N      1.787    -0.315    28.985     7.974
   2   6 C      2.814     0.144    24.857     8.169
   3   7 N      1.914     0.122    19.769     6.592
   4   7 N      0.985    -0.105    22.939     6.888
   5   8 O      0.924    -0.255    18.954     5.838
   6   7 N      1.845     0.199    18.537     6.381
   7   6 C      2.831    -0.031    28.761     8.788
   8   1 H      0.860     0.155     1.365     1.830
   9   1 H      0.926     0.085     1.927     2.171

 Mol. C6AA /au·bohr⁶  :       1304.492269
 Mol. C8AA /au·bohr⁸  :      29818.724740
 Mol. α(0) /au        :         54.631800


Wiberg/Mayer (AO) data.
largest (>0.10) Wiberg bond orders for each atom
          total WBO             WBO to atom ...
     1  N   3.111        C    2 1.531    H    8 0.944    N    4 0.156    N    6 0.147    O    5 0.140    N    3 0.127
     2  C   3.935        N    1 1.531    N    3 1.138    C    7 1.044    N    4 0.129
     3  N   3.697        N    4 2.250    C    2 1.138    N    1 0.127
     4  N   2.782        N    3 2.250    N    6 0.184    N    1 0.156    C    2 0.129
     5  O   2.038        N    6 1.508    C    7 0.261    N    1 0.140
     6  N   3.607        C    7 1.633    O    5 1.508    N    4 0.184    N    1 0.147
     7  C   3.948        N    6 1.633    C    2 1.044    H    9 0.905    O    5 0.261
     8  H   0.976        N    1 0.944
     9  H   0.988        C    7 0.905

molecular dipole:
                 x           y           z       tot (Debye)
 q only:       -0.772      -0.079       0.490
   full:       -0.969      -0.078       0.746       3.115
molecular quadrupole (traceless):
                xx          xy          yy          xz          yz          zz
 q only:       -6.793       1.730       3.663       2.575      -1.457       3.129
  q+dip:       -9.032       0.897       4.936       5.348      -2.278       4.096
   full:      -10.199       0.762       6.085       5.991      -2.085       4.114


           -------------------------------------------------
          | TOTAL ENERGY              -20.829886227176 Eh   |
          | GRADIENT NORM               0.027635221450 Eh/α |
          | HOMO-LUMO GAP               0.201913148556 eV   |
           -------------------------------------------------

------------------------------------------------------------------------
 * finished run on 2021/06/02 at 10:00:08.920     
------------------------------------------------------------------------
 total:
 * wall-time:     0 d,  0 h,  0 min,  0.016 sec
 *  cpu-time:     0 d,  0 h,  0 min,  0.015 sec
 * ratio c/w:     0.986 speedup
 SCF:
 * wall-time:     0 d,  0 h,  0 min,  0.008 sec
 *  cpu-time:     0 d,  0 h,  0 min,  0.008 sec
 * ratio c/w:     1.000 speedup

