 Entering Gaussian System, Link 0=/software/kemi/g16/avx2/g16/g16
 Initial command:
 /software/kemi/g16/avx2/g16/l1.exe "/scratch/23935644/Gau-14667.inp" -scrdir="/scratch/23935644/"
 Entering Link 1 = /software/kemi/g16/avx2/g16/l1.exe PID=     14668.
  
 Copyright (c) 1988,1990,1992,1993,1995,1998,2003,2009,2016,
            Gaussian, Inc.  All Rights Reserved.
  
 This is part of the Gaussian(R) 16 program.  It is based on
 the Gaussian(R) 09 system (copyright 2009, Gaussian, Inc.),
 the Gaussian(R) 03 system (copyright 2003, Gaussian, Inc.),
 the Gaussian(R) 98 system (copyright 1998, Gaussian, Inc.),
 the Gaussian(R) 94 system (copyright 1995, Gaussian, Inc.),
 the Gaussian 92(TM) system (copyright 1992, Gaussian, Inc.),
 the Gaussian 90(TM) system (copyright 1990, Gaussian, Inc.),
 the Gaussian 88(TM) system (copyright 1988, Gaussian, Inc.),
 the Gaussian 86(TM) system (copyright 1986, Carnegie Mellon
 University), and the Gaussian 82(TM) system (copyright 1983,
 Carnegie Mellon University). Gaussian is a federally registered
 trademark of Gaussian, Inc.
  
 This software contains proprietary and confidential information,
 including trade secrets, belonging to Gaussian, Inc.
  
 This software is provided under written license and may be
 used, copied, transmitted, or stored only in accord with that
 written license.
  
 The following legend is applicable only to US Government
 contracts under FAR:
  
                    RESTRICTED RIGHTS LEGEND
  
 Use, reproduction and disclosure by the US Government is
 subject to restrictions as set forth in subparagraphs (a)
 and (c) of the Commercial Computer Software - Restricted
 Rights clause in FAR 52.227-19.
  
 Gaussian, Inc.
 340 Quinnipiac St., Bldg. 40, Wallingford CT 06492
  
  
 ---------------------------------------------------------------
 Warning -- This program may not be used in any manner that
 competes with the business of Gaussian, Inc. or will provide
 assistance to any competitor of Gaussian, Inc.  The licensee
 of this program is prohibited from giving any competitor of
 Gaussian, Inc. access to this program.  By using this program,
 the user acknowledges that Gaussian, Inc. is engaged in the
 business of creating and licensing software in the field of
 computational chemistry and represents and warrants to the
 licensee that it is not a competitor of Gaussian, Inc. and that
 it will not use this program in any manner prohibited above.
 ---------------------------------------------------------------
  

 Cite this work as:
 Gaussian 16, Revision A.03,
 M. J. Frisch, G. W. Trucks, H. B. Schlegel, G. E. Scuseria, 
 M. A. Robb, J. R. Cheeseman, G. Scalmani, V. Barone, 
 G. A. Petersson, H. Nakatsuji, X. Li, M. Caricato, A. V. Marenich, 
 J. Bloino, B. G. Janesko, R. Gomperts, B. Mennucci, H. P. Hratchian, 
 J. V. Ortiz, A. F. Izmaylov, J. L. Sonnenberg, D. Williams-Young, 
 F. Ding, F. Lipparini, F. Egidi, J. Goings, B. Peng, A. Petrone, 
 T. Henderson, D. Ranasinghe, V. G. Zakrzewski, J. Gao, N. Rega, 
 G. Zheng, W. Liang, M. Hada, M. Ehara, K. Toyota, R. Fukuda, 
 J. Hasegawa, M. Ishida, T. Nakajima, Y. Honda, O. Kitao, H. Nakai, 
 T. Vreven, K. Throssell, J. A. Montgomery, Jr., J. E. Peralta, 
 F. Ogliaro, M. J. Bearpark, J. J. Heyd, E. N. Brothers, K. N. Kudin, 
 V. N. Staroverov, T. A. Keith, R. Kobayashi, J. Normand, 
 K. Raghavachari, A. P. Rendell, J. C. Burant, S. S. Iyengar, 
 J. Tomasi, M. Cossi, J. M. Millam, M. Klene, C. Adamo, R. Cammi, 
 J. W. Ochterski, R. L. Martin, K. Morokuma, O. Farkas, 
 J. B. Foresman, and D. J. Fox, Gaussian, Inc., Wallingford CT, 2016.
 
 ******************************************
 Gaussian 16:  ES64L-G16RevA.03 25-Dec-2016
                22-Jun-2021 
 ******************************************
 %nprocshared=4
 Will use up to    4 processors via shared memory.
 %mem=8GB
 ------------------
 # UwB97XD/Def2TZVP
 ------------------
 1/38=1,172=1/1;
 2/12=2,17=6,18=5,40=1/2;
 3/5=44,7=101,11=2,25=1,30=1,74=-58,116=2/1,2,3;
 4//1;
 5/5=2,38=5/2;
 6/7=2,8=2,9=2,10=2,28=1/1;
 99/5=1,9=1/99;
 ---------------
 something title
 ---------------
 Symbolic Z-matrix:
 Charge =  0 Multiplicity = 1
 N                    -0.49307  -0.17563  -1.29173 
 C                    -0.4471   -0.89048  -0.21911 
 N                    -1.54525  -1.12041   0.51225 
 N                    -2.63205  -1.33345   0.75166 
 O                     3.06656  -1.35772  -0.33056 
 N                     1.87072  -1.33858  -0.24216 
 C                     0.81446  -1.25339   0.4283 
 H                    -1.40165   0.21139  -1.54799 
 H                     0.74344  -1.55368   1.46165 
 
                          Input orientation:                          
 ---------------------------------------------------------------------
 Center     Atomic      Atomic             Coordinates (Angstroms)
 Number     Number       Type             X           Y           Z
 ---------------------------------------------------------------------
      1          7           0       -0.493065   -0.175630   -1.291731
      2          6           0       -0.447096   -0.890481   -0.219105
      3          7           0       -1.545250   -1.120413    0.512246
      4          7           0       -2.632045   -1.333448    0.751662
      5          8           0        3.066564   -1.357718   -0.330556
      6          7           0        1.870721   -1.338583   -0.242156
      7          6           0        0.814457   -1.253394    0.428296
      8          1           0       -1.401651    0.211385   -1.547986
      9          1           0        0.743439   -1.553682    1.461651
 ---------------------------------------------------------------------
                    Distance matrix (angstroms):
                    1          2          3          4          5
     1  N    0.000000
     2  C    1.289826   0.000000
     3  N    2.292170   1.339285   0.000000
     4  N    3.176670   2.431586   1.133061   0.000000
     5  O    3.871970   3.546342   4.694194   5.800511   0.000000
     6  N    2.835763   2.360848   3.505079   4.611139   1.199259
     7  C    2.414473   1.463677   2.364942   3.462564   2.378808
     8  H    1.020282   1.972615   2.457410   3.031297   4.889700
     9  H    3.317994   2.163828   2.515390   3.456368   2.940632
                    6          7          8          9
     6  N    0.000000
     7  C    1.253976   0.000000
     8  H    3.849157   3.310952   0.000000
     9  H    2.054262   1.078443   4.095704   0.000000
 Stoichiometry    C2H2N4O
 Framework group  C1[X(C2H2N4O)]
 Deg. of freedom    21
 Full point group                 C1      NOp   1
 Largest Abelian subgroup         C1      NOp   1
 Largest concise Abelian subgroup C1      NOp   1
                         Standard orientation:                         
 ---------------------------------------------------------------------
 Center     Atomic      Atomic             Coordinates (Angstroms)
 Number     Number       Type             X           Y           Z
 ---------------------------------------------------------------------
      1          7           0       -0.518830    1.546886    0.038725
      2          6           0       -0.562534    0.258562   -0.005596
      3          7           0       -1.726780   -0.401135    0.049332
      4          7           0       -2.819693   -0.636478   -0.135010
      5          8           0        2.959806   -0.151391   -0.045519
      6          7           0        1.763358   -0.128407   -0.124278
      7          6           0        0.628747   -0.573318    0.170968
      8          1           0       -1.410641    2.034622    0.126821
      9          1           0        0.448522   -1.601019    0.443710
 ---------------------------------------------------------------------
 Rotational constants (GHZ):           9.2542894           1.4340115           1.2484762
 Standard basis: def2TZVP (5D, 7F)
 There are   264 symmetry adapted cartesian basis functions of A   symmetry.
 There are   229 symmetry adapted basis functions of A   symmetry.
   229 basis functions,   373 primitive gaussians,   264 cartesian basis functions
    25 alpha electrons       25 beta electrons
       nuclear repulsion energy       256.4928251477 Hartrees.
 NAtoms=    9 NActive=    9 NUniq=    9 SFac= 1.00D+00 NAtFMM=   60 NAOKFM=F Big=F
 Integral buffers will be    131072 words long.
 Raffenetti 2 integral format.
 Two-electron integral symmetry is turned on.
 Nuclear repulsion after empirical dispersion term =      256.4902946517 Hartrees.
 One-electron integrals computed using PRISM.
   1 Symmetry operations used in ECPInt.
 ECPInt:  NShTT=    3655 NPrTT=   11788 LenC2=    3519 LenP2D=    9054.
 LDataN:  DoStor=T MaxTD1= 6 Len=  172
 NBasis=   229 RedAO= T EigKep=  1.79D-04  NBF=   229
 NBsUse=   229 1.00D-06 EigRej= -1.00D+00 NBFU=   229
 ExpMin= 9.52D-02 ExpMax= 2.70D+04 ExpMxC= 9.22D+02 IAcc=3 IRadAn=         5 AccDes= 0.00D+00
 Harris functional with IExCor= 4639 and IRadAn=       5 diagonalized for initial guess.
 HarFok:  IExCor= 4639 AccDes= 0.00D+00 IRadAn=         5 IDoV= 1 UseB2=F ITyADJ=14
 ICtDFT=  3500011 ScaDFX=  1.000000  1.000000  1.000000  1.000000
 FoFCou: FMM=F IPFlag=           0 FMFlag=      100000 FMFlg1=           0
         NFxFlg=           0 DoJE=T BraDBF=F KetDBF=T FulRan=T
         wScrn=  0.000000 ICntrl=       500 IOpCl=  0 I1Cent=   200000004 NGrid=           0
         NMat0=    1 NMatS0=      1 NMatT0=    0 NMatD0=    1 NMtDS0=    0 NMtDT0=    0
 Petite list used in FoFCou.
 Initial guess <Sx>= 0.0000 <Sy>= 0.0000 <Sz>= 0.0000 <S**2>=-0.0000 S=-0.0000
 Requested convergence on RMS density matrix=1.00D-08 within 128 cycles.
 Requested convergence on MAX density matrix=1.00D-06.
 Requested convergence on             energy=1.00D-06.
 No special actions if energy rises.
 Integral accuracy reduced to 1.0D-05 until final iterations.
 Initial convergence to 1.0D-05 achieved.  Increase integral accuracy.
 SCF Done:  E(UwB97XD) =  -371.397969376     A.U. after   26 cycles
            NFock= 26  Conv=0.53D-08     -V/T= 2.0037
 <Sx>= 0.0000 <Sy>= 0.0000 <Sz>= 0.0000 <S**2>=-0.0000 S=-0.0000
 <L.S>=  0.00000000000    
 Annihilation of the first spin contaminant:
 S**2 before annihilation    -0.0000,   after     0.0000

 **********************************************************************

            Population analysis using the SCF density.

 **********************************************************************

 Orbital symmetries:
 Alpha Orbitals:
       Occupied  (A) (A) (A) (A) (A) (A) (A) (A) (A) (A) (A) (A)
                 (A) (A) (A) (A) (A) (A) (A) (A) (A) (A) (A) (A)
                 (A)
       Virtual   (A) (A) (A) (A) (A) (A) (A) (A) (A) (A) (A) (A)
                 (A) (A) (A) (A) (A) (A) (A) (A) (A) (A) (A) (A)
                 (A) (A) (A) (A) (A) (A) (A) (A) (A) (A) (A) (A)
                 (A) (A) (A) (A) (A) (A) (A) (A) (A) (A) (A) (A)
                 (A) (A) (A) (A) (A) (A) (A) (A) (A) (A) (A) (A)
                 (A) (A) (A) (A) (A) (A) (A) (A) (A) (A) (A) (A)
                 (A) (A) (A) (A) (A) (A) (A) (A) (A) (A) (A) (A)
                 (A) (A) (A) (A) (A) (A) (A) (A) (A) (A) (A) (A)
                 (A) (A) (A) (A) (A) (A) (A) (A) (A) (A) (A) (A)
                 (A) (A) (A) (A) (A) (A) (A) (A) (A) (A) (A) (A)
                 (A) (A) (A) (A) (A) (A) (A) (A) (A) (A) (A) (A)
                 (A) (A) (A) (A) (A) (A) (A) (A) (A) (A) (A) (A)
                 (A) (A) (A) (A) (A) (A) (A) (A) (A) (A) (A) (A)
                 (A) (A) (A) (A) (A) (A) (A) (A) (A) (A) (A) (A)
                 (A) (A) (A) (A) (A) (A) (A) (A) (A) (A) (A) (A)
                 (A) (A) (A) (A) (A) (A) (A) (A) (A) (A) (A) (A)
                 (A) (A) (A) (A) (A) (A) (A) (A) (A) (A) (A) (A)
 Beta  Orbitals:
       Occupied  (A) (A) (A) (A) (A) (A) (A) (A) (A) (A) (A) (A)
                 (A) (A) (A) (A) (A) (A) (A) (A) (A) (A) (A) (A)
                 (A)
       Virtual   (A) (A) (A) (A) (A) (A) (A) (A) (A) (A) (A) (A)
                 (A) (A) (A) (A) (A) (A) (A) (A) (A) (A) (A) (A)
                 (A) (A) (A) (A) (A) (A) (A) (A) (A) (A) (A) (A)
                 (A) (A) (A) (A) (A) (A) (A) (A) (A) (A) (A) (A)
                 (A) (A) (A) (A) (A) (A) (A) (A) (A) (A) (A) (A)
                 (A) (A) (A) (A) (A) (A) (A) (A) (A) (A) (A) (A)
                 (A) (A) (A) (A) (A) (A) (A) (A) (A) (A) (A) (A)
                 (A) (A) (A) (A) (A) (A) (A) (A) (A) (A) (A) (A)
                 (A) (A) (A) (A) (A) (A) (A) (A) (A) (A) (A) (A)
                 (A) (A) (A) (A) (A) (A) (A) (A) (A) (A) (A) (A)
                 (A) (A) (A) (A) (A) (A) (A) (A) (A) (A) (A) (A)
                 (A) (A) (A) (A) (A) (A) (A) (A) (A) (A) (A) (A)
                 (A) (A) (A) (A) (A) (A) (A) (A) (A) (A) (A) (A)
                 (A) (A) (A) (A) (A) (A) (A) (A) (A) (A) (A) (A)
                 (A) (A) (A) (A) (A) (A) (A) (A) (A) (A) (A) (A)
                 (A) (A) (A) (A) (A) (A) (A) (A) (A) (A) (A) (A)
                 (A) (A) (A) (A) (A) (A) (A) (A) (A) (A) (A) (A)
 The electronic state is 1-A.
 Alpha  occ. eigenvalues --  -19.30564 -14.62890 -14.58879 -14.55848 -14.43811
 Alpha  occ. eigenvalues --  -10.41703 -10.35681  -1.28113  -1.26384  -1.07126
 Alpha  occ. eigenvalues --   -0.98318  -0.92392  -0.74191  -0.66946  -0.63969
 Alpha  occ. eigenvalues --   -0.63401  -0.61876  -0.59954  -0.57457  -0.57092
 Alpha  occ. eigenvalues --   -0.49665  -0.45630  -0.39051  -0.34251  -0.24496
 Alpha virt. eigenvalues --   -0.08728  -0.04038   0.02974   0.10168   0.14046
 Alpha virt. eigenvalues --    0.15087   0.18244   0.18891   0.24456   0.26982
 Alpha virt. eigenvalues --    0.28228   0.30135   0.31787   0.32516   0.34231
 Alpha virt. eigenvalues --    0.35745   0.38363   0.40340   0.41540   0.44464
 Alpha virt. eigenvalues --    0.45354   0.46477   0.48215   0.49041   0.50925
 Alpha virt. eigenvalues --    0.53392   0.54400   0.54881   0.55279   0.56983
 Alpha virt. eigenvalues --    0.57999   0.59887   0.61420   0.64898   0.65758
 Alpha virt. eigenvalues --    0.67781   0.70439   0.73604   0.78420   0.79232
 Alpha virt. eigenvalues --    0.80921   0.82794   0.86600   0.90717   0.92449
 Alpha virt. eigenvalues --    0.98662   0.99894   1.01763   1.04764   1.10649
 Alpha virt. eigenvalues --    1.11154   1.15009   1.19861   1.25171   1.28321
 Alpha virt. eigenvalues --    1.30324   1.32289   1.33875   1.38203   1.43049
 Alpha virt. eigenvalues --    1.43937   1.47280   1.50802   1.51393   1.53614
 Alpha virt. eigenvalues --    1.55655   1.58529   1.61347   1.65114   1.66127
 Alpha virt. eigenvalues --    1.69157   1.71230   1.75356   1.78646   1.82160
 Alpha virt. eigenvalues --    1.84507   1.88456   1.90068   1.92260   1.97337
 Alpha virt. eigenvalues --    2.02237   2.05383   2.07877   2.11775   2.13420
 Alpha virt. eigenvalues --    2.14644   2.18811   2.22588   2.24992   2.25883
 Alpha virt. eigenvalues --    2.29181   2.33712   2.37406   2.39886   2.43935
 Alpha virt. eigenvalues --    2.47688   2.48997   2.56515   2.61479   2.64366
 Alpha virt. eigenvalues --    2.67430   2.70104   2.75109   2.82144   2.85179
 Alpha virt. eigenvalues --    2.89005   2.92705   2.94561   2.97890   2.98834
 Alpha virt. eigenvalues --    3.02150   3.08612   3.11937   3.13990   3.16140
 Alpha virt. eigenvalues --    3.18971   3.22611   3.25726   3.28827   3.36513
 Alpha virt. eigenvalues --    3.38398   3.43393   3.48357   3.49970   3.56117
 Alpha virt. eigenvalues --    3.59036   3.62221   3.65562   3.71061   3.73588
 Alpha virt. eigenvalues --    3.74581   3.78326   3.78429   3.83183   3.86734
 Alpha virt. eigenvalues --    3.89873   3.96423   4.03187   4.03818   4.08402
 Alpha virt. eigenvalues --    4.12619   4.20604   4.22569   4.29338   4.31112
 Alpha virt. eigenvalues --    4.38534   4.38796   4.42854   4.43824   4.48819
 Alpha virt. eigenvalues --    4.51507   4.56456   4.61839   4.63246   4.64483
 Alpha virt. eigenvalues --    4.70371   4.72399   4.76047   4.77352   4.79309
 Alpha virt. eigenvalues --    4.80824   4.84556   4.90987   4.93197   4.98900
 Alpha virt. eigenvalues --    5.04703   5.06117   5.08142   5.11464   5.13000
 Alpha virt. eigenvalues --    5.17019   5.21546   5.23097   5.23899   5.27895
 Alpha virt. eigenvalues --    5.39591   5.39868   5.45640   5.53353   5.59833
 Alpha virt. eigenvalues --    5.74795   5.78583   5.79509   5.87425   6.03637
 Alpha virt. eigenvalues --    6.34816   6.35535   6.41530   6.55251   6.59318
 Alpha virt. eigenvalues --    6.64564   6.72472   6.89977   7.04339   7.14940
 Alpha virt. eigenvalues --    7.36200   7.44368  22.91418  23.30728  31.74269
 Alpha virt. eigenvalues --   32.08005  32.60463  32.96527  44.18737
  Beta  occ. eigenvalues --  -19.30564 -14.62890 -14.58879 -14.55848 -14.43811
  Beta  occ. eigenvalues --  -10.41703 -10.35681  -1.28113  -1.26384  -1.07126
  Beta  occ. eigenvalues --   -0.98318  -0.92392  -0.74191  -0.66946  -0.63969
  Beta  occ. eigenvalues --   -0.63401  -0.61876  -0.59954  -0.57457  -0.57092
  Beta  occ. eigenvalues --   -0.49665  -0.45630  -0.39051  -0.34251  -0.24496
  Beta virt. eigenvalues --   -0.08728  -0.04038   0.02974   0.10168   0.14046
  Beta virt. eigenvalues --    0.15087   0.18244   0.18891   0.24456   0.26982
  Beta virt. eigenvalues --    0.28228   0.30135   0.31787   0.32516   0.34231
  Beta virt. eigenvalues --    0.35745   0.38363   0.40340   0.41540   0.44464
  Beta virt. eigenvalues --    0.45354   0.46477   0.48215   0.49041   0.50925
  Beta virt. eigenvalues --    0.53392   0.54400   0.54881   0.55279   0.56983
  Beta virt. eigenvalues --    0.57999   0.59887   0.61420   0.64898   0.65758
  Beta virt. eigenvalues --    0.67781   0.70439   0.73604   0.78420   0.79232
  Beta virt. eigenvalues --    0.80921   0.82794   0.86600   0.90717   0.92449
  Beta virt. eigenvalues --    0.98662   0.99894   1.01763   1.04764   1.10649
  Beta virt. eigenvalues --    1.11154   1.15009   1.19861   1.25171   1.28321
  Beta virt. eigenvalues --    1.30324   1.32289   1.33875   1.38203   1.43049
  Beta virt. eigenvalues --    1.43937   1.47280   1.50802   1.51393   1.53614
  Beta virt. eigenvalues --    1.55655   1.58529   1.61347   1.65114   1.66127
  Beta virt. eigenvalues --    1.69157   1.71230   1.75356   1.78646   1.82160
  Beta virt. eigenvalues --    1.84507   1.88456   1.90068   1.92260   1.97337
  Beta virt. eigenvalues --    2.02237   2.05383   2.07877   2.11775   2.13420
  Beta virt. eigenvalues --    2.14644   2.18811   2.22588   2.24992   2.25883
  Beta virt. eigenvalues --    2.29181   2.33712   2.37406   2.39886   2.43935
  Beta virt. eigenvalues --    2.47688   2.48997   2.56515   2.61479   2.64366
  Beta virt. eigenvalues --    2.67430   2.70104   2.75109   2.82144   2.85179
  Beta virt. eigenvalues --    2.89005   2.92705   2.94561   2.97890   2.98834
  Beta virt. eigenvalues --    3.02150   3.08612   3.11937   3.13990   3.16140
  Beta virt. eigenvalues --    3.18971   3.22611   3.25726   3.28827   3.36513
  Beta virt. eigenvalues --    3.38398   3.43393   3.48357   3.49970   3.56117
  Beta virt. eigenvalues --    3.59036   3.62221   3.65562   3.71061   3.73588
  Beta virt. eigenvalues --    3.74581   3.78326   3.78429   3.83183   3.86734
  Beta virt. eigenvalues --    3.89873   3.96423   4.03187   4.03818   4.08402
  Beta virt. eigenvalues --    4.12619   4.20604   4.22569   4.29338   4.31112
  Beta virt. eigenvalues --    4.38534   4.38796   4.42854   4.43824   4.48819
  Beta virt. eigenvalues --    4.51507   4.56456   4.61839   4.63246   4.64483
  Beta virt. eigenvalues --    4.70371   4.72399   4.76047   4.77352   4.79309
  Beta virt. eigenvalues --    4.80824   4.84556   4.90987   4.93197   4.98900
  Beta virt. eigenvalues --    5.04703   5.06117   5.08142   5.11464   5.13000
  Beta virt. eigenvalues --    5.17019   5.21546   5.23097   5.23899   5.27895
  Beta virt. eigenvalues --    5.39591   5.39868   5.45640   5.53353   5.59833
  Beta virt. eigenvalues --    5.74795   5.78583   5.79509   5.87425   6.03637
  Beta virt. eigenvalues --    6.34816   6.35535   6.41530   6.55251   6.59318
  Beta virt. eigenvalues --    6.64564   6.72472   6.89977   7.04339   7.14940
  Beta virt. eigenvalues --    7.36200   7.44368  22.91418  23.30728  31.74269
  Beta virt. eigenvalues --   32.08005  32.60463  32.96527  44.18737
          Condensed to atoms (all electrons):
               1          2          3          4          5          6
     1  N    6.548185   0.685534  -0.087260  -0.002167  -0.000773  -0.001533
     2  C    0.685534   4.847188   0.302540  -0.061345   0.005203  -0.090405
     3  N   -0.087260   0.302540   6.301189   0.400537  -0.000176   0.001114
     4  N   -0.002167  -0.061345   0.400537   6.719410  -0.000005   0.000863
     5  O   -0.000773   0.005203  -0.000176  -0.000005   8.084442   0.257694
     6  N   -0.001533  -0.090405   0.001114   0.000863   0.257694   6.071287
     7  C   -0.095759   0.265979  -0.042013   0.006987  -0.064955   0.587590
     8  H    0.346694  -0.059415  -0.010951   0.000871   0.000016   0.000104
     9  H   -0.002949  -0.144725   0.024982   0.005309   0.003291  -0.026004
               7          8          9
     1  N   -0.095759   0.346694  -0.002949
     2  C    0.265979  -0.059415  -0.144725
     3  N   -0.042013  -0.010951   0.024982
     4  N    0.006987   0.000871   0.005309
     5  O   -0.064955   0.000016   0.003291
     6  N    0.587590   0.000104  -0.026004
     7  C    5.057452   0.014411   0.432744
     8  H    0.014411   0.487099  -0.000353
     9  H    0.432744  -0.000353   0.580401
          Atomic-Atomic Spin Densities.
               1          2          3          4          5          6
     1  N    0.000000  -0.000000  -0.000000   0.000000  -0.000000   0.000000
     2  C   -0.000000   0.000000   0.000000  -0.000000  -0.000000   0.000000
     3  N   -0.000000   0.000000   0.000000  -0.000000   0.000000  -0.000000
     4  N    0.000000  -0.000000  -0.000000   0.000000  -0.000000   0.000000
     5  O   -0.000000  -0.000000   0.000000  -0.000000  -0.000000   0.000000
     6  N    0.000000   0.000000  -0.000000   0.000000   0.000000  -0.000000
     7  C   -0.000000  -0.000000   0.000000   0.000000  -0.000000  -0.000000
     8  H   -0.000000   0.000000   0.000000   0.000000  -0.000000   0.000000
     9  H   -0.000000   0.000000  -0.000000  -0.000000  -0.000000   0.000000
               7          8          9
     1  N   -0.000000  -0.000000  -0.000000
     2  C   -0.000000   0.000000   0.000000
     3  N    0.000000   0.000000  -0.000000
     4  N    0.000000   0.000000  -0.000000
     5  O   -0.000000  -0.000000  -0.000000
     6  N   -0.000000   0.000000   0.000000
     7  C   -0.000000   0.000000   0.000000
     8  H    0.000000  -0.000000   0.000000
     9  H    0.000000   0.000000  -0.000000
 Mulliken charges and spin densities:
               1          2
     1  N   -0.389973   0.000000
     2  C    0.249447   0.000000
     3  N    0.110038   0.000000
     4  N   -0.070459   0.000000
     5  O   -0.284738  -0.000000
     6  N    0.199291  -0.000000
     7  C   -0.162435  -0.000000
     8  H    0.221525  -0.000000
     9  H    0.127305  -0.000000
 Sum of Mulliken charges =  -0.00000   0.00000
 Mulliken charges and spin densities with hydrogens summed into heavy atoms:
               1          2
     1  N   -0.168449   0.000000
     2  C    0.249447   0.000000
     3  N    0.110038   0.000000
     4  N   -0.070459   0.000000
     5  O   -0.284738  -0.000000
     6  N    0.199291  -0.000000
     7  C   -0.035130  -0.000000
 Electronic spatial extent (au):  <R**2>=            831.8973
 Charge=             -0.0000 electrons
 Dipole moment (field-independent basis, Debye):
    X=             -4.0913    Y=             -1.7665    Z=              0.5284  Tot=              4.4876
 Quadrupole moment (field-independent basis, Debye-Ang):
   XX=            -45.0428   YY=            -38.0075   ZZ=            -39.3204
   XY=             -3.4044   XZ=             -0.0154   YZ=              0.1640
 Traceless Quadrupole moment (field-independent basis, Debye-Ang):
   XX=             -4.2525   YY=              2.7827   ZZ=              1.4698
   XY=             -3.4044   XZ=             -0.0154   YZ=              0.1640
 Octapole moment (field-independent basis, Debye-Ang**2):
  XXX=            -17.8459  YYY=             -5.1182  ZZZ=             -0.4474  XYY=             -3.8267
  XXY=              8.1097  XXZ=              1.8431  XZZ=              1.4611  YZZ=             -1.0048
  YYZ=              1.1515  XYZ=              0.2628
 Hexadecapole moment (field-independent basis, Debye-Ang**3):
 XXXX=           -919.7135 YYYY=           -169.2403 ZZZZ=            -40.4941 XXXY=            -17.5514
 XXXZ=             -2.8007 YYYX=            -16.1039 YYYZ=              0.5329 ZZZX=             -0.8697
 ZZZY=              0.8916 XXYY=           -150.7473 XXZZ=           -141.2524 YYZZ=            -37.7647
 XXYZ=              2.0896 YYXZ=             -1.1881 ZZXY=             -0.4776
 N-N= 2.564902946517D+02 E-N=-1.381593713230D+03  KE= 3.700465564057D+02
                          Isotropic Fermi Contact Couplings
        Atom                 a.u.       MegaHertz       Gauss      10(-4) cm-1
     1  N(14)              0.00000       0.00000       0.00000       0.00000
     2  C(13)             -0.00000      -0.00000      -0.00000      -0.00000
     3  N(14)              0.00000       0.00000       0.00000       0.00000
     4  N(14)              0.00000       0.00000       0.00000       0.00000
     5  O(17)             -0.00000       0.00000       0.00000       0.00000
     6  N(14)             -0.00000      -0.00000      -0.00000      -0.00000
     7  C(13)             -0.00000      -0.00000      -0.00000      -0.00000
     8  H(1)              -0.00000      -0.00000      -0.00000      -0.00000
     9  H(1)              -0.00000      -0.00000      -0.00000      -0.00000
 --------------------------------------------------------
       Center         ----  Spin Dipole Couplings  ----
                      3XX-RR        3YY-RR        3ZZ-RR
 --------------------------------------------------------
     1   Atom       -0.000000     -0.000000      0.000000
     2   Atom       -0.000000      0.000000      0.000000
     3   Atom       -0.000000     -0.000000      0.000000
     4   Atom       -0.000000     -0.000000      0.000000
     5   Atom        0.000000     -0.000000      0.000000
     6   Atom        0.000000     -0.000000      0.000000
     7   Atom       -0.000000      0.000000     -0.000000
     8   Atom        0.000000     -0.000000     -0.000000
     9   Atom        0.000000     -0.000000      0.000000
 --------------------------------------------------------
                        XY            XZ            YZ
 --------------------------------------------------------
     1   Atom        0.000000      0.000000     -0.000000
     2   Atom        0.000000      0.000000      0.000000
     3   Atom        0.000000      0.000000     -0.000000
     4   Atom        0.000000     -0.000000     -0.000000
     5   Atom        0.000000     -0.000000      0.000000
     6   Atom        0.000000     -0.000000      0.000000
     7   Atom       -0.000000      0.000000      0.000000
     8   Atom       -0.000000     -0.000000      0.000000
     9   Atom       -0.000000      0.000000     -0.000000
 --------------------------------------------------------


 ---------------------------------------------------------------------------------
              Anisotropic Spin Dipole Couplings in Principal Axis System
 ---------------------------------------------------------------------------------

       Atom             a.u.   MegaHertz   Gauss  10(-4) cm-1        Axes

              Baa    -0.0000    -0.000    -0.000    -0.000  0.8547 -0.5135 -0.0756
     1 N(14)  Bbb    -0.0000    -0.000    -0.000    -0.000  0.5128  0.8580 -0.0299
              Bcc     0.0000     0.000     0.000     0.000  0.0802 -0.0132  0.9967
 
              Baa    -0.0000    -0.000    -0.000    -0.000  0.8812 -0.3991 -0.2536
     2 C(13)  Bbb    -0.0000    -0.000    -0.000    -0.000  0.1936  0.7938 -0.5766
              Bcc     0.0000     0.000     0.000     0.000  0.4314  0.4589  0.7767
 
              Baa    -0.0000    -0.000    -0.000    -0.000 -0.2776  0.9606  0.0101
     3 N(14)  Bbb    -0.0000    -0.000    -0.000    -0.000  0.9607  0.2776  0.0005
              Bcc     0.0000     0.000     0.000     0.000  0.0023 -0.0098  0.9999
 
              Baa    -0.0000    -0.000    -0.000    -0.000  0.9944 -0.0318  0.1008
     4 N(14)  Bbb    -0.0000    -0.000    -0.000    -0.000  0.0236  0.9964  0.0814
              Bcc     0.0000     0.000     0.000     0.000 -0.1030 -0.0786  0.9916
 
              Baa    -0.0000     0.000     0.000     0.000 -0.1347  0.9621 -0.2370
     5 O(17)  Bbb     0.0000    -0.000    -0.000    -0.000  0.9865  0.1528  0.0597
              Bcc     0.0000    -0.000    -0.000    -0.000 -0.0937  0.2257  0.9697
 
              Baa    -0.0000    -0.000    -0.000    -0.000 -0.1452  0.9204 -0.3629
     6 N(14)  Bbb     0.0000     0.000     0.000     0.000  0.9819  0.0891 -0.1670
              Bcc     0.0000     0.000     0.000     0.000  0.1214  0.3806  0.9167
 
              Baa    -0.0000    -0.000    -0.000    -0.000 -0.6878 -0.1544  0.7093
     7 C(13)  Bbb     0.0000     0.000     0.000     0.000  0.5729  0.4847  0.6610
              Bcc     0.0000     0.000     0.000     0.000 -0.4459  0.8609 -0.2449
 
              Baa    -0.0000    -0.000    -0.000    -0.000  0.4899  0.8692 -0.0670
     8 H(1)   Bbb    -0.0000    -0.000    -0.000    -0.000  0.0871  0.0276  0.9958
              Bcc     0.0000     0.000     0.000     0.000  0.8674 -0.4937 -0.0622
 
              Baa    -0.0000    -0.000    -0.000    -0.000  0.4953  0.8581 -0.1354
     9 H(1)   Bbb     0.0000     0.000     0.000     0.000 -0.3293  0.3297  0.8848
              Bcc     0.0000     0.000     0.000     0.000  0.8039 -0.3937  0.4459
 

 ---------------------------------------------------------------------------------

 1\1\GINC-NODE305\SP\UwB97XD\def2TZVP\C2H2N4O1\MHARRIS\22-Jun-2021\0\\#
  UwB97XD/Def2TZVP\\something title\\0,1\N,0,-0.493065,-0.17563,-1.2917
 31\C,0,-0.447096,-0.890481,-0.219105\N,0,-1.54525,-1.120413,0.512246\N
 ,0,-2.632045,-1.333448,0.751662\O,0,3.066564,-1.357718,-0.330556\N,0,1
 .870721,-1.338583,-0.242156\C,0,0.814457,-1.253394,0.428296\H,0,-1.401
 651,0.211385,-1.547986\H,0,0.743439,-1.553682,1.461651\\Version=ES64L-
 G16RevA.03\State=1-A\HF=-371.3979694\S2=0.\S2-1=0.\S2A=0.\RMSD=5.277e-
 09\Dipole=-1.5186474,-0.0915484,0.8958123\Quadrupole=-2.7117226,1.6234
 157,1.088307,-1.1221574,2.6596376,-0.4869779\PG=C01 [X(C2H2N4O1)]\\@


 THERE IS SOMETHING FASCINATING ABOUT SCIENCE.
 ONE GETS SUCH WHOLESALE CONJECTURE OUT OF SUCH TRIFLING INVESTMENTS.

                                                       -- MARK TWAIN
 Job cpu time:       0 days  0 hours 23 minutes  0.5 seconds.
 Elapsed time:       0 days  0 hours  5 minutes 46.4 seconds.
 File lengths (MBytes):  RWF=     54 Int=      0 D2E=      0 Chk=      5 Scr=      1
 Normal termination of Gaussian 16 at Tue Jun 22 16:20:50 2021.
