 Entering Gaussian System, Link 0=/software/kemi/g16/avx2/g16/g16
 Initial command:
 /software/kemi/g16/avx2/g16/l1.exe "/scratch/23935644/Gau-15243.inp" -scrdir="/scratch/23935644/"
 Entering Link 1 = /software/kemi/g16/avx2/g16/l1.exe PID=     15244.
  
 Copyright (c) 1988,1990,1992,1993,1995,1998,2003,2009,2016,
            Gaussian, Inc.  All Rights Reserved.
  
 This is part of the Gaussian(R) 16 program.  It is based on
 the Gaussian(R) 09 system (copyright 2009, Gaussian, Inc.),
 the Gaussian(R) 03 system (copyright 2003, Gaussian, Inc.),
 the Gaussian(R) 98 system (copyright 1998, Gaussian, Inc.),
 the Gaussian(R) 94 system (copyright 1995, Gaussian, Inc.),
 the Gaussian 92(TM) system (copyright 1992, Gaussian, Inc.),
 the Gaussian 90(TM) system (copyright 1990, Gaussian, Inc.),
 the Gaussian 88(TM) system (copyright 1988, Gaussian, Inc.),
 the Gaussian 86(TM) system (copyright 1986, Carnegie Mellon
 University), and the Gaussian 82(TM) system (copyright 1983,
 Carnegie Mellon University). Gaussian is a federally registered
 trademark of Gaussian, Inc.
  
 This software contains proprietary and confidential information,
 including trade secrets, belonging to Gaussian, Inc.
  
 This software is provided under written license and may be
 used, copied, transmitted, or stored only in accord with that
 written license.
  
 The following legend is applicable only to US Government
 contracts under FAR:
  
                    RESTRICTED RIGHTS LEGEND
  
 Use, reproduction and disclosure by the US Government is
 subject to restrictions as set forth in subparagraphs (a)
 and (c) of the Commercial Computer Software - Restricted
 Rights clause in FAR 52.227-19.
  
 Gaussian, Inc.
 340 Quinnipiac St., Bldg. 40, Wallingford CT 06492
  
  
 ---------------------------------------------------------------
 Warning -- This program may not be used in any manner that
 competes with the business of Gaussian, Inc. or will provide
 assistance to any competitor of Gaussian, Inc.  The licensee
 of this program is prohibited from giving any competitor of
 Gaussian, Inc. access to this program.  By using this program,
 the user acknowledges that Gaussian, Inc. is engaged in the
 business of creating and licensing software in the field of
 computational chemistry and represents and warrants to the
 licensee that it is not a competitor of Gaussian, Inc. and that
 it will not use this program in any manner prohibited above.
 ---------------------------------------------------------------
  

 Cite this work as:
 Gaussian 16, Revision A.03,
 M. J. Frisch, G. W. Trucks, H. B. Schlegel, G. E. Scuseria, 
 M. A. Robb, J. R. Cheeseman, G. Scalmani, V. Barone, 
 G. A. Petersson, H. Nakatsuji, X. Li, M. Caricato, A. V. Marenich, 
 J. Bloino, B. G. Janesko, R. Gomperts, B. Mennucci, H. P. Hratchian, 
 J. V. Ortiz, A. F. Izmaylov, J. L. Sonnenberg, D. Williams-Young, 
 F. Ding, F. Lipparini, F. Egidi, J. Goings, B. Peng, A. Petrone, 
 T. Henderson, D. Ranasinghe, V. G. Zakrzewski, J. Gao, N. Rega, 
 G. Zheng, W. Liang, M. Hada, M. Ehara, K. Toyota, R. Fukuda, 
 J. Hasegawa, M. Ishida, T. Nakajima, Y. Honda, O. Kitao, H. Nakai, 
 T. Vreven, K. Throssell, J. A. Montgomery, Jr., J. E. Peralta, 
 F. Ogliaro, M. J. Bearpark, J. J. Heyd, E. N. Brothers, K. N. Kudin, 
 V. N. Staroverov, T. A. Keith, R. Kobayashi, J. Normand, 
 K. Raghavachari, A. P. Rendell, J. C. Burant, S. S. Iyengar, 
 J. Tomasi, M. Cossi, J. M. Millam, M. Klene, C. Adamo, R. Cammi, 
 J. W. Ochterski, R. L. Martin, K. Morokuma, O. Farkas, 
 J. B. Foresman, and D. J. Fox, Gaussian, Inc., Wallingford CT, 2016.
 
 ******************************************
 Gaussian 16:  ES64L-G16RevA.03 25-Dec-2016
                22-Jun-2021 
 ******************************************
 %nprocshared=4
 Will use up to    4 processors via shared memory.
 %mem=8GB
 ------------------
 # UwB97XD/Def2TZVP
 ------------------
 1/38=1,172=1/1;
 2/12=2,17=6,18=5,40=1/2;
 3/5=44,7=101,11=2,25=1,30=1,74=-58,116=2/1,2,3;
 4//1;
 5/5=2,38=5/2;
 6/7=2,8=2,9=2,10=2,28=1/1;
 99/5=1,9=1/99;
 ---------------
 something title
 ---------------
 Symbolic Z-matrix:
 Charge =  0 Multiplicity = 1
 N                    -0.5137   -0.15567  -1.27883 
 C                    -0.43913  -0.85973  -0.20249 
 N                    -1.54054  -1.13806   0.50039 
 N                    -2.63252  -1.31687   0.75756 
 O                     3.05619  -1.40607  -0.23297 
 N                     1.86854  -1.30071  -0.30739 
 C                     0.82371  -1.24464   0.40449 
 H                    -1.43227   0.17466  -1.55715 
 H                     0.78578  -1.56487   1.43872 
 
                          Input orientation:                          
 ---------------------------------------------------------------------
 Center     Atomic      Atomic             Coordinates (Angstroms)
 Number     Number       Type             X           Y           Z
 ---------------------------------------------------------------------
      1          7           0       -0.513699   -0.155671   -1.278834
      2          6           0       -0.439132   -0.859725   -0.202492
      3          7           0       -1.540539   -1.138061    0.500393
      4          7           0       -2.632517   -1.316872    0.757559
      5          8           0        3.056194   -1.406070   -0.232971
      6          7           0        1.868540   -1.300707   -0.307392
      7          6           0        0.823709   -1.244644    0.404485
      8          1           0       -1.432265    0.174656   -1.557147
      9          1           0        0.785782   -1.564870    1.438718
 ---------------------------------------------------------------------
                    Distance matrix (angstroms):
                    1          2          3          4          5
     1  N    0.000000
     2  C    1.288318   0.000000
     3  N    2.277090   1.335895   0.000000
     4  N    3.159853   2.437544   1.136012   0.000000
     5  O    3.924470   3.537898   4.662575   5.774993   0.000000
     6  N    2.816002   2.351769   3.507248   4.625354   1.194639
     7  C    2.409997   1.453049   2.368592   3.474964   2.327316
     8  H    1.015055   1.972650   2.443035   3.003852   4.939474
     9  H    3.325595   2.165921   2.544482   3.494317   2.823921
                    6          7          8          9
     6  N    0.000000
     7  C    1.265537   0.000000
     8  H    3.825428   3.309355   0.000000
     9  H    2.071484   1.083338   4.113501   0.000000
 Stoichiometry    C2H2N4O
 Framework group  C1[X(C2H2N4O)]
 Deg. of freedom    21
 Full point group                 C1      NOp   1
 Largest Abelian subgroup         C1      NOp   1
 Largest concise Abelian subgroup C1      NOp   1
                         Standard orientation:                         
 ---------------------------------------------------------------------
 Center     Atomic      Atomic             Coordinates (Angstroms)
 Number     Number       Type             X           Y           Z
 ---------------------------------------------------------------------
      1          7           0       -0.560097    1.543711    0.042598
      2          6           0       -0.559191    0.255561    0.021800
      3          7           0       -1.711100   -0.420983    0.025009
      4          7           0       -2.810180   -0.668810   -0.120344
      5          8           0        2.946519   -0.216437   -0.040942
      6          7           0        1.770453   -0.027277   -0.131759
      7          6           0        0.650532   -0.536555    0.164883
      8          1           0       -1.461935    2.008958    0.066513
      9          1           0        0.518206   -1.577972    0.432396
 ---------------------------------------------------------------------
 Rotational constants (GHZ):           9.2440684           1.4396068           1.2519389
 Standard basis: def2TZVP (5D, 7F)
 There are   264 symmetry adapted cartesian basis functions of A   symmetry.
 There are   229 symmetry adapted basis functions of A   symmetry.
   229 basis functions,   373 primitive gaussians,   264 cartesian basis functions
    25 alpha electrons       25 beta electrons
       nuclear repulsion energy       256.9298253028 Hartrees.
 NAtoms=    9 NActive=    9 NUniq=    9 SFac= 1.00D+00 NAtFMM=   60 NAOKFM=F Big=F
 Integral buffers will be    131072 words long.
 Raffenetti 2 integral format.
 Two-electron integral symmetry is turned on.
 Nuclear repulsion after empirical dispersion term =      256.9272995433 Hartrees.
 One-electron integrals computed using PRISM.
   1 Symmetry operations used in ECPInt.
 ECPInt:  NShTT=    3655 NPrTT=   11788 LenC2=    3522 LenP2D=    9051.
 LDataN:  DoStor=T MaxTD1= 6 Len=  172
 NBasis=   229 RedAO= T EigKep=  1.83D-04  NBF=   229
 NBsUse=   229 1.00D-06 EigRej= -1.00D+00 NBFU=   229
 ExpMin= 9.52D-02 ExpMax= 2.70D+04 ExpMxC= 9.22D+02 IAcc=3 IRadAn=         5 AccDes= 0.00D+00
 Harris functional with IExCor= 4639 and IRadAn=       5 diagonalized for initial guess.
 HarFok:  IExCor= 4639 AccDes= 0.00D+00 IRadAn=         5 IDoV= 1 UseB2=F ITyADJ=14
 ICtDFT=  3500011 ScaDFX=  1.000000  1.000000  1.000000  1.000000
 FoFCou: FMM=F IPFlag=           0 FMFlag=      100000 FMFlg1=           0
         NFxFlg=           0 DoJE=T BraDBF=F KetDBF=T FulRan=T
         wScrn=  0.000000 ICntrl=       500 IOpCl=  0 I1Cent=   200000004 NGrid=           0
         NMat0=    1 NMatS0=      1 NMatT0=    0 NMatD0=    1 NMtDS0=    0 NMtDT0=    0
 Petite list used in FoFCou.
 Initial guess <Sx>= 0.0000 <Sy>= 0.0000 <Sz>= 0.0000 <S**2>=-0.0000 S=-0.0000
 Requested convergence on RMS density matrix=1.00D-08 within 128 cycles.
 Requested convergence on MAX density matrix=1.00D-06.
 Requested convergence on             energy=1.00D-06.
 No special actions if energy rises.
 Integral accuracy reduced to 1.0D-05 until final iterations.
 EnCoef did     3 forward-backward iterations
 Initial convergence to 1.0D-05 achieved.  Increase integral accuracy.
 SCF Done:  E(UwB97XD) =  -371.405873902     A.U. after   29 cycles
            NFock= 29  Conv=0.35D-08     -V/T= 2.0036
 <Sx>= 0.0000 <Sy>= 0.0000 <Sz>= 0.0000 <S**2>=-0.0000 S=-0.0000
 <L.S>=  0.00000000000    
 Annihilation of the first spin contaminant:
 S**2 before annihilation    -0.0000,   after    -0.0000

 **********************************************************************

            Population analysis using the SCF density.

 **********************************************************************

 Orbital symmetries:
 Alpha Orbitals:
       Occupied  (A) (A) (A) (A) (A) (A) (A) (A) (A) (A) (A) (A)
                 (A) (A) (A) (A) (A) (A) (A) (A) (A) (A) (A) (A)
                 (A)
       Virtual   (A) (A) (A) (A) (A) (A) (A) (A) (A) (A) (A) (A)
                 (A) (A) (A) (A) (A) (A) (A) (A) (A) (A) (A) (A)
                 (A) (A) (A) (A) (A) (A) (A) (A) (A) (A) (A) (A)
                 (A) (A) (A) (A) (A) (A) (A) (A) (A) (A) (A) (A)
                 (A) (A) (A) (A) (A) (A) (A) (A) (A) (A) (A) (A)
                 (A) (A) (A) (A) (A) (A) (A) (A) (A) (A) (A) (A)
                 (A) (A) (A) (A) (A) (A) (A) (A) (A) (A) (A) (A)
                 (A) (A) (A) (A) (A) (A) (A) (A) (A) (A) (A) (A)
                 (A) (A) (A) (A) (A) (A) (A) (A) (A) (A) (A) (A)
                 (A) (A) (A) (A) (A) (A) (A) (A) (A) (A) (A) (A)
                 (A) (A) (A) (A) (A) (A) (A) (A) (A) (A) (A) (A)
                 (A) (A) (A) (A) (A) (A) (A) (A) (A) (A) (A) (A)
                 (A) (A) (A) (A) (A) (A) (A) (A) (A) (A) (A) (A)
                 (A) (A) (A) (A) (A) (A) (A) (A) (A) (A) (A) (A)
                 (A) (A) (A) (A) (A) (A) (A) (A) (A) (A) (A) (A)
                 (A) (A) (A) (A) (A) (A) (A) (A) (A) (A) (A) (A)
                 (A) (A) (A) (A) (A) (A) (A) (A) (A) (A) (A) (A)
 Beta  Orbitals:
       Occupied  (A) (A) (A) (A) (A) (A) (A) (A) (A) (A) (A) (A)
                 (A) (A) (A) (A) (A) (A) (A) (A) (A) (A) (A) (A)
                 (A)
       Virtual   (A) (A) (A) (A) (A) (A) (A) (A) (A) (A) (A) (A)
                 (A) (A) (A) (A) (A) (A) (A) (A) (A) (A) (A) (A)
                 (A) (A) (A) (A) (A) (A) (A) (A) (A) (A) (A) (A)
                 (A) (A) (A) (A) (A) (A) (A) (A) (A) (A) (A) (A)
                 (A) (A) (A) (A) (A) (A) (A) (A) (A) (A) (A) (A)
                 (A) (A) (A) (A) (A) (A) (A) (A) (A) (A) (A) (A)
                 (A) (A) (A) (A) (A) (A) (A) (A) (A) (A) (A) (A)
                 (A) (A) (A) (A) (A) (A) (A) (A) (A) (A) (A) (A)
                 (A) (A) (A) (A) (A) (A) (A) (A) (A) (A) (A) (A)
                 (A) (A) (A) (A) (A) (A) (A) (A) (A) (A) (A) (A)
                 (A) (A) (A) (A) (A) (A) (A) (A) (A) (A) (A) (A)
                 (A) (A) (A) (A) (A) (A) (A) (A) (A) (A) (A) (A)
                 (A) (A) (A) (A) (A) (A) (A) (A) (A) (A) (A) (A)
                 (A) (A) (A) (A) (A) (A) (A) (A) (A) (A) (A) (A)
                 (A) (A) (A) (A) (A) (A) (A) (A) (A) (A) (A) (A)
                 (A) (A) (A) (A) (A) (A) (A) (A) (A) (A) (A) (A)
                 (A) (A) (A) (A) (A) (A) (A) (A) (A) (A) (A) (A)
 The electronic state is 1-A.
 Alpha  occ. eigenvalues --  -19.28840 -14.64596 -14.60812 -14.54201 -14.44446
 Alpha  occ. eigenvalues --  -10.42284 -10.34214  -1.29454  -1.25524  -1.07921
 Alpha  occ. eigenvalues --   -0.96627  -0.93285  -0.74114  -0.66966  -0.65135
 Alpha  occ. eigenvalues --   -0.64007  -0.62339  -0.59591  -0.57546  -0.55979
 Alpha  occ. eigenvalues --   -0.48802  -0.46049  -0.39436  -0.33112  -0.24970
 Alpha virt. eigenvalues --   -0.09439  -0.05451   0.03623   0.10298   0.14020
 Alpha virt. eigenvalues --    0.15049   0.18058   0.19369   0.24031   0.27190
 Alpha virt. eigenvalues --    0.28900   0.30100   0.32177   0.33085   0.33695
 Alpha virt. eigenvalues --    0.35719   0.38200   0.39850   0.41546   0.44643
 Alpha virt. eigenvalues --    0.45676   0.46495   0.48288   0.49339   0.51097
 Alpha virt. eigenvalues --    0.53413   0.54197   0.54847   0.55454   0.57358
 Alpha virt. eigenvalues --    0.58358   0.60216   0.62346   0.64290   0.65803
 Alpha virt. eigenvalues --    0.68251   0.70707   0.72604   0.77973   0.79505
 Alpha virt. eigenvalues --    0.81015   0.82404   0.84691   0.89721   0.91697
 Alpha virt. eigenvalues --    0.96744   1.00483   1.02604   1.05592   1.11186
 Alpha virt. eigenvalues --    1.12059   1.14549   1.19868   1.26980   1.29458
 Alpha virt. eigenvalues --    1.30044   1.31340   1.33588   1.39618   1.43292
 Alpha virt. eigenvalues --    1.45068   1.46879   1.50200   1.50987   1.53255
 Alpha virt. eigenvalues --    1.55583   1.58352   1.61638   1.66043   1.66630
 Alpha virt. eigenvalues --    1.69342   1.73119   1.76718   1.77933   1.81126
 Alpha virt. eigenvalues --    1.83171   1.89257   1.90017   1.91194   1.97018
 Alpha virt. eigenvalues --    2.00636   2.05123   2.06992   2.11674   2.12961
 Alpha virt. eigenvalues --    2.15058   2.19278   2.24273   2.24701   2.25951
 Alpha virt. eigenvalues --    2.27768   2.35103   2.36345   2.39282   2.43097
 Alpha virt. eigenvalues --    2.46730   2.49383   2.55924   2.61135   2.64224
 Alpha virt. eigenvalues --    2.64651   2.71019   2.75291   2.81942   2.86626
 Alpha virt. eigenvalues --    2.89991   2.93477   2.96439   2.97305   3.01244
 Alpha virt. eigenvalues --    3.04303   3.07173   3.11014   3.14160   3.15466
 Alpha virt. eigenvalues --    3.21153   3.22933   3.26293   3.28213   3.37669
 Alpha virt. eigenvalues --    3.38156   3.42071   3.46013   3.49915   3.55300
 Alpha virt. eigenvalues --    3.57679   3.62095   3.64176   3.69600   3.74063
 Alpha virt. eigenvalues --    3.74999   3.78107   3.78288   3.84068   3.86055
 Alpha virt. eigenvalues --    3.89349   3.97913   4.05545   4.06377   4.07196
 Alpha virt. eigenvalues --    4.13535   4.19623   4.21151   4.29095   4.30822
 Alpha virt. eigenvalues --    4.36850   4.37933   4.42037   4.44886   4.49543
 Alpha virt. eigenvalues --    4.50518   4.56511   4.59612   4.63503   4.67931
 Alpha virt. eigenvalues --    4.71753   4.73173   4.75462   4.78159   4.80246
 Alpha virt. eigenvalues --    4.86156   4.89683   4.92276   4.93170   4.96512
 Alpha virt. eigenvalues --    5.04534   5.05028   5.08826   5.10999   5.11841
 Alpha virt. eigenvalues --    5.13252   5.19914   5.24605   5.25967   5.26812
 Alpha virt. eigenvalues --    5.37191   5.40240   5.46295   5.58224   5.59251
 Alpha virt. eigenvalues --    5.70630   5.79247   5.81353   5.89186   6.00946
 Alpha virt. eigenvalues --    6.36521   6.37219   6.39277   6.53844   6.58909
 Alpha virt. eigenvalues --    6.62091   6.79096   6.91359   7.03059   7.17235
 Alpha virt. eigenvalues --    7.33600   7.43249  22.90323  23.34248  31.72442
 Alpha virt. eigenvalues --   32.08777  32.56210  32.96675  44.16072
  Beta  occ. eigenvalues --  -19.28840 -14.64596 -14.60812 -14.54201 -14.44446
  Beta  occ. eigenvalues --  -10.42284 -10.34214  -1.29454  -1.25524  -1.07921
  Beta  occ. eigenvalues --   -0.96627  -0.93285  -0.74114  -0.66966  -0.65135
  Beta  occ. eigenvalues --   -0.64007  -0.62339  -0.59591  -0.57546  -0.55979
  Beta  occ. eigenvalues --   -0.48802  -0.46049  -0.39436  -0.33112  -0.24970
  Beta virt. eigenvalues --   -0.09439  -0.05451   0.03623   0.10298   0.14020
  Beta virt. eigenvalues --    0.15049   0.18058   0.19369   0.24031   0.27190
  Beta virt. eigenvalues --    0.28900   0.30100   0.32177   0.33085   0.33695
  Beta virt. eigenvalues --    0.35719   0.38200   0.39850   0.41546   0.44643
  Beta virt. eigenvalues --    0.45676   0.46495   0.48288   0.49339   0.51097
  Beta virt. eigenvalues --    0.53413   0.54197   0.54847   0.55454   0.57358
  Beta virt. eigenvalues --    0.58358   0.60216   0.62346   0.64290   0.65803
  Beta virt. eigenvalues --    0.68251   0.70707   0.72604   0.77973   0.79505
  Beta virt. eigenvalues --    0.81015   0.82404   0.84691   0.89721   0.91697
  Beta virt. eigenvalues --    0.96744   1.00483   1.02604   1.05592   1.11186
  Beta virt. eigenvalues --    1.12059   1.14549   1.19868   1.26980   1.29458
  Beta virt. eigenvalues --    1.30044   1.31340   1.33588   1.39618   1.43292
  Beta virt. eigenvalues --    1.45068   1.46879   1.50200   1.50987   1.53255
  Beta virt. eigenvalues --    1.55583   1.58352   1.61638   1.66043   1.66630
  Beta virt. eigenvalues --    1.69342   1.73119   1.76718   1.77933   1.81126
  Beta virt. eigenvalues --    1.83171   1.89257   1.90017   1.91194   1.97018
  Beta virt. eigenvalues --    2.00636   2.05123   2.06992   2.11674   2.12961
  Beta virt. eigenvalues --    2.15058   2.19278   2.24273   2.24701   2.25951
  Beta virt. eigenvalues --    2.27768   2.35103   2.36345   2.39282   2.43097
  Beta virt. eigenvalues --    2.46730   2.49383   2.55924   2.61135   2.64224
  Beta virt. eigenvalues --    2.64651   2.71019   2.75291   2.81942   2.86626
  Beta virt. eigenvalues --    2.89991   2.93477   2.96439   2.97305   3.01244
  Beta virt. eigenvalues --    3.04303   3.07173   3.11014   3.14160   3.15466
  Beta virt. eigenvalues --    3.21153   3.22933   3.26293   3.28213   3.37669
  Beta virt. eigenvalues --    3.38156   3.42071   3.46013   3.49915   3.55300
  Beta virt. eigenvalues --    3.57679   3.62095   3.64176   3.69600   3.74063
  Beta virt. eigenvalues --    3.74999   3.78107   3.78288   3.84068   3.86055
  Beta virt. eigenvalues --    3.89349   3.97913   4.05545   4.06377   4.07196
  Beta virt. eigenvalues --    4.13535   4.19623   4.21151   4.29095   4.30822
  Beta virt. eigenvalues --    4.36850   4.37933   4.42037   4.44886   4.49543
  Beta virt. eigenvalues --    4.50518   4.56511   4.59612   4.63503   4.67931
  Beta virt. eigenvalues --    4.71753   4.73173   4.75462   4.78159   4.80246
  Beta virt. eigenvalues --    4.86156   4.89683   4.92276   4.93170   4.96512
  Beta virt. eigenvalues --    5.04534   5.05028   5.08826   5.10999   5.11841
  Beta virt. eigenvalues --    5.13252   5.19914   5.24605   5.25967   5.26812
  Beta virt. eigenvalues --    5.37191   5.40240   5.46295   5.58224   5.59251
  Beta virt. eigenvalues --    5.70630   5.79247   5.81353   5.89186   6.00946
  Beta virt. eigenvalues --    6.36521   6.37219   6.39277   6.53844   6.58909
  Beta virt. eigenvalues --    6.62091   6.79096   6.91359   7.03059   7.17235
  Beta virt. eigenvalues --    7.33600   7.43249  22.90323  23.34248  31.72442
  Beta virt. eigenvalues --   32.08777  32.56210  32.96675  44.16072
          Condensed to atoms (all electrons):
               1          2          3          4          5          6
     1  N    6.526333   0.678116  -0.080315  -0.002075  -0.000986   0.003666
     2  C    0.678116   4.764569   0.323398  -0.048213   0.004625  -0.078398
     3  N   -0.080315   0.323398   6.263757   0.410320  -0.000105   0.000996
     4  N   -0.002075  -0.048213   0.410320   6.669363   0.000003   0.000474
     5  O   -0.000986   0.004625  -0.000105   0.000003   8.130513   0.233834
     6  N    0.003666  -0.078398   0.000996   0.000474   0.233834   6.136058
     7  C   -0.098031   0.290870  -0.055514   0.004802  -0.070328   0.558341
     8  H    0.345269  -0.060106  -0.010659   0.001207   0.000016   0.000075
     9  H   -0.001384  -0.127936   0.019057   0.003882   0.006277  -0.029678
               7          8          9
     1  N   -0.098031   0.345269  -0.001384
     2  C    0.290870  -0.060106  -0.127936
     3  N   -0.055514  -0.010659   0.019057
     4  N    0.004802   0.001207   0.003882
     5  O   -0.070328   0.000016   0.006277
     6  N    0.558341   0.000075  -0.029678
     7  C    5.104049   0.015492   0.426409
     8  H    0.015492   0.488701  -0.000289
     9  H    0.426409  -0.000289   0.590435
          Atomic-Atomic Spin Densities.
               1          2          3          4          5          6
     1  N   -0.000000   0.000000   0.000000  -0.000000   0.000000  -0.000000
     2  C    0.000000  -0.000000  -0.000000   0.000000   0.000000   0.000000
     3  N    0.000000  -0.000000  -0.000000   0.000000  -0.000000   0.000000
     4  N   -0.000000   0.000000   0.000000  -0.000000   0.000000  -0.000000
     5  O    0.000000   0.000000  -0.000000   0.000000   0.000000  -0.000000
     6  N   -0.000000   0.000000   0.000000  -0.000000  -0.000000   0.000000
     7  C    0.000000   0.000000  -0.000000  -0.000000  -0.000000   0.000000
     8  H    0.000000  -0.000000  -0.000000  -0.000000  -0.000000   0.000000
     9  H    0.000000  -0.000000   0.000000   0.000000   0.000000  -0.000000
               7          8          9
     1  N    0.000000   0.000000   0.000000
     2  C    0.000000  -0.000000  -0.000000
     3  N   -0.000000  -0.000000   0.000000
     4  N   -0.000000  -0.000000   0.000000
     5  O   -0.000000  -0.000000   0.000000
     6  N    0.000000   0.000000  -0.000000
     7  C    0.000000  -0.000000  -0.000000
     8  H   -0.000000   0.000000   0.000000
     9  H   -0.000000   0.000000   0.000000
 Mulliken charges and spin densities:
               1          2
     1  N   -0.370592  -0.000000
     2  C    0.253075  -0.000000
     3  N    0.129066  -0.000000
     4  N   -0.039762  -0.000000
     5  O   -0.303849   0.000000
     6  N    0.174632   0.000000
     7  C   -0.176089   0.000000
     8  H    0.220294   0.000000
     9  H    0.113227   0.000000
 Sum of Mulliken charges =  -0.00000  -0.00000
 Mulliken charges and spin densities with hydrogens summed into heavy atoms:
               1          2
     1  N   -0.150299  -0.000000
     2  C    0.253075  -0.000000
     3  N    0.129066  -0.000000
     4  N   -0.039762  -0.000000
     5  O   -0.303849   0.000000
     6  N    0.174632   0.000000
     7  C   -0.062863   0.000000
 Electronic spatial extent (au):  <R**2>=            829.6048
 Charge=             -0.0000 electrons
 Dipole moment (field-independent basis, Debye):
    X=             -5.1909    Y=             -1.6580    Z=              0.4482  Tot=              5.4677
 Quadrupole moment (field-independent basis, Debye-Ang):
   XX=            -44.6612   YY=            -38.2914   ZZ=            -39.2163
   XY=             -2.6852   XZ=              0.2985   YZ=              0.0767
 Traceless Quadrupole moment (field-independent basis, Debye-Ang):
   XX=             -3.9382   YY=              2.4316   ZZ=              1.5066
   XY=             -2.6852   XZ=              0.2985   YZ=              0.0767
 Octapole moment (field-independent basis, Debye-Ang**2):
  XXX=            -26.7044  YYY=             -4.8667  ZZZ=             -0.6018  XYY=             -4.8781
  XXY=              8.4558  XXZ=              1.5584  XZZ=              0.7810  YZZ=             -1.0861
  YYZ=              0.6071  XYZ=              0.8201
 Hexadecapole moment (field-independent basis, Debye-Ang**3):
 XXXX=           -913.2365 YYYY=           -170.3909 ZZZZ=            -40.1457 XXXY=            -12.5572
 XXXZ=             -0.9641 YYYX=            -15.1471 YYYZ=             -0.4384 ZZZX=             -0.5083
 ZZZY=              0.8165 XXYY=           -150.8313 XXZZ=           -139.7884 YYZZ=            -37.6976
 XXYZ=              2.3235 YYXZ=             -0.5315 ZZXY=             -0.1361
 N-N= 2.569272995433D+02 E-N=-1.382504168490D+03  KE= 3.700810816298D+02
                          Isotropic Fermi Contact Couplings
        Atom                 a.u.       MegaHertz       Gauss      10(-4) cm-1
     1  N(14)             -0.00000      -0.00000      -0.00000      -0.00000
     2  C(13)              0.00000       0.00000       0.00000       0.00000
     3  N(14)              0.00000       0.00000       0.00000       0.00000
     4  N(14)             -0.00000      -0.00000      -0.00000      -0.00000
     5  O(17)              0.00000      -0.00000      -0.00000      -0.00000
     6  N(14)              0.00000       0.00000       0.00000       0.00000
     7  C(13)              0.00000       0.00000       0.00000       0.00000
     8  H(1)               0.00000       0.00000       0.00000       0.00000
     9  H(1)               0.00000       0.00000       0.00000       0.00000
 --------------------------------------------------------
       Center         ----  Spin Dipole Couplings  ----
                      3XX-RR        3YY-RR        3ZZ-RR
 --------------------------------------------------------
     1   Atom        0.000000      0.000000     -0.000000
     2   Atom        0.000000     -0.000000     -0.000000
     3   Atom        0.000000      0.000000     -0.000000
     4   Atom        0.000000      0.000000     -0.000000
     5   Atom       -0.000000      0.000000     -0.000000
     6   Atom       -0.000000      0.000000     -0.000000
     7   Atom        0.000000     -0.000000      0.000000
     8   Atom       -0.000000      0.000000      0.000000
     9   Atom       -0.000000      0.000000     -0.000000
 --------------------------------------------------------
                        XY            XZ            YZ
 --------------------------------------------------------
     1   Atom       -0.000000     -0.000000     -0.000000
     2   Atom       -0.000000     -0.000000     -0.000000
     3   Atom       -0.000000      0.000000     -0.000000
     4   Atom       -0.000000      0.000000      0.000000
     5   Atom       -0.000000      0.000000     -0.000000
     6   Atom       -0.000000      0.000000     -0.000000
     7   Atom        0.000000     -0.000000     -0.000000
     8   Atom        0.000000     -0.000000     -0.000000
     9   Atom        0.000000     -0.000000     -0.000000
 --------------------------------------------------------


 ---------------------------------------------------------------------------------
              Anisotropic Spin Dipole Couplings in Principal Axis System
 ---------------------------------------------------------------------------------

       Atom             a.u.   MegaHertz   Gauss  10(-4) cm-1        Axes

              Baa    -0.0000    -0.000    -0.000    -0.000  0.0232  0.0044  0.9997
     1 N(14)  Bbb     0.0000     0.000     0.000     0.000  0.2878  0.9576 -0.0109
              Bcc     0.0000     0.000     0.000     0.000  0.9574 -0.2880 -0.0210
 
              Baa    -0.0000    -0.000    -0.000    -0.000  0.3028  0.4291  0.8510
     2 C(13)  Bbb     0.0000     0.000     0.000     0.000  0.2670  0.8190 -0.5080
              Bcc     0.0000     0.000     0.000     0.000  0.9149 -0.3810 -0.1334
 
              Baa    -0.0000    -0.000    -0.000    -0.000 -0.0326  0.0158  0.9993
     3 N(14)  Bbb     0.0000     0.000     0.000     0.000  0.9491  0.3140  0.0260
              Bcc     0.0000     0.000     0.000     0.000 -0.3134  0.9493 -0.0252
 
              Baa    -0.0000    -0.000    -0.000    -0.000 -0.0904 -0.0346  0.9953
     4 N(14)  Bbb     0.0000     0.000     0.000     0.000  0.0257  0.9990  0.0370
              Bcc     0.0000     0.000     0.000     0.000  0.9956 -0.0289  0.0894
 
              Baa    -0.0000     0.000     0.000     0.000 -0.0712  0.1222  0.9900
     5 O(17)  Bbb    -0.0000     0.000     0.000     0.000  0.9973  0.0263  0.0684
              Bcc     0.0000    -0.000    -0.000    -0.000 -0.0177  0.9922 -0.1237
 
              Baa    -0.0000    -0.000    -0.000    -0.000  0.1706  0.2849  0.9432
     6 N(14)  Bbb    -0.0000    -0.000    -0.000    -0.000  0.9820  0.0301 -0.1867
              Bcc     0.0000     0.000     0.000     0.000 -0.0816  0.9581 -0.2747
 
              Baa    -0.0000    -0.000    -0.000    -0.000 -0.4940  0.8362 -0.2380
     7 C(13)  Bbb    -0.0000    -0.000    -0.000    -0.000  0.6013  0.5263  0.6012
              Bcc     0.0000     0.000     0.000     0.000 -0.6280 -0.1539  0.7629
 
              Baa    -0.0000    -0.000    -0.000    -0.000  0.8811 -0.4728  0.0130
     8 H(1)   Bbb     0.0000     0.000     0.000     0.000  0.0103  0.0468  0.9989
              Bcc     0.0000     0.000     0.000     0.000  0.4728  0.8799 -0.0461
 
              Baa    -0.0000    -0.000    -0.000    -0.000  0.8306 -0.3420  0.4395
     9 H(1)   Bbb    -0.0000    -0.000    -0.000    -0.000 -0.3353  0.3229  0.8850
              Bcc     0.0000     0.000     0.000     0.000  0.4446  0.8825 -0.1535
 

 ---------------------------------------------------------------------------------

 1\1\GINC-NODE305\SP\UwB97XD\def2TZVP\C2H2N4O1\MHARRIS\22-Jun-2021\0\\#
  UwB97XD/Def2TZVP\\something title\\0,1\N,0,-0.513699,-0.155671,-1.278
 834\C,0,-0.439132,-0.859725,-0.202492\N,0,-1.540539,-1.138061,0.500393
 \N,0,-2.632517,-1.316872,0.757559\O,0,3.056194,-1.40607,-0.232971\N,0,
 1.86854,-1.300707,-0.307392\C,0,0.823709,-1.244644,0.404485\H,0,-1.432
 265,0.174656,-1.557147\H,0,0.785782,-1.56487,1.438718\\Version=ES64L-G
 16RevA.03\State=1-A\HF=-371.4058739\S2=0.\S2-1=0.\S2A=0.\RMSD=3.497e-0
 9\Dipole=-1.9648571,-0.0579867,0.8737493\Quadrupole=-2.5694266,1.46843
 13,1.1009953,-0.6229611,2.249459,-0.3908417\PG=C01 [X(C2H2N4O1)]\\@


 VIRTUE IS LEARNED AT YOUR MOTHER'S KNEE,
 VICES ARE PICKED UP AT SOME OTHER JOINT.
 Job cpu time:       0 days  0 hours 25 minutes 56.6 seconds.
 Elapsed time:       0 days  0 hours  6 minutes 29.9 seconds.
 File lengths (MBytes):  RWF=     54 Int=      0 D2E=      0 Chk=      5 Scr=      1
 Normal termination of Gaussian 16 at Tue Jun 22 17:09:10 2021.
