 Entering Gaussian System, Link 0=/software/kemi/g16/avx2/g16/g16
 Initial command:
 /software/kemi/g16/avx2/g16/l1.exe "/scratch/23935644/Gau-14945.inp" -scrdir="/scratch/23935644/"
 Entering Link 1 = /software/kemi/g16/avx2/g16/l1.exe PID=     14946.
  
 Copyright (c) 1988,1990,1992,1993,1995,1998,2003,2009,2016,
            Gaussian, Inc.  All Rights Reserved.
  
 This is part of the Gaussian(R) 16 program.  It is based on
 the Gaussian(R) 09 system (copyright 2009, Gaussian, Inc.),
 the Gaussian(R) 03 system (copyright 2003, Gaussian, Inc.),
 the Gaussian(R) 98 system (copyright 1998, Gaussian, Inc.),
 the Gaussian(R) 94 system (copyright 1995, Gaussian, Inc.),
 the Gaussian 92(TM) system (copyright 1992, Gaussian, Inc.),
 the Gaussian 90(TM) system (copyright 1990, Gaussian, Inc.),
 the Gaussian 88(TM) system (copyright 1988, Gaussian, Inc.),
 the Gaussian 86(TM) system (copyright 1986, Carnegie Mellon
 University), and the Gaussian 82(TM) system (copyright 1983,
 Carnegie Mellon University). Gaussian is a federally registered
 trademark of Gaussian, Inc.
  
 This software contains proprietary and confidential information,
 including trade secrets, belonging to Gaussian, Inc.
  
 This software is provided under written license and may be
 used, copied, transmitted, or stored only in accord with that
 written license.
  
 The following legend is applicable only to US Government
 contracts under FAR:
  
                    RESTRICTED RIGHTS LEGEND
  
 Use, reproduction and disclosure by the US Government is
 subject to restrictions as set forth in subparagraphs (a)
 and (c) of the Commercial Computer Software - Restricted
 Rights clause in FAR 52.227-19.
  
 Gaussian, Inc.
 340 Quinnipiac St., Bldg. 40, Wallingford CT 06492
  
  
 ---------------------------------------------------------------
 Warning -- This program may not be used in any manner that
 competes with the business of Gaussian, Inc. or will provide
 assistance to any competitor of Gaussian, Inc.  The licensee
 of this program is prohibited from giving any competitor of
 Gaussian, Inc. access to this program.  By using this program,
 the user acknowledges that Gaussian, Inc. is engaged in the
 business of creating and licensing software in the field of
 computational chemistry and represents and warrants to the
 licensee that it is not a competitor of Gaussian, Inc. and that
 it will not use this program in any manner prohibited above.
 ---------------------------------------------------------------
  

 Cite this work as:
 Gaussian 16, Revision A.03,
 M. J. Frisch, G. W. Trucks, H. B. Schlegel, G. E. Scuseria, 
 M. A. Robb, J. R. Cheeseman, G. Scalmani, V. Barone, 
 G. A. Petersson, H. Nakatsuji, X. Li, M. Caricato, A. V. Marenich, 
 J. Bloino, B. G. Janesko, R. Gomperts, B. Mennucci, H. P. Hratchian, 
 J. V. Ortiz, A. F. Izmaylov, J. L. Sonnenberg, D. Williams-Young, 
 F. Ding, F. Lipparini, F. Egidi, J. Goings, B. Peng, A. Petrone, 
 T. Henderson, D. Ranasinghe, V. G. Zakrzewski, J. Gao, N. Rega, 
 G. Zheng, W. Liang, M. Hada, M. Ehara, K. Toyota, R. Fukuda, 
 J. Hasegawa, M. Ishida, T. Nakajima, Y. Honda, O. Kitao, H. Nakai, 
 T. Vreven, K. Throssell, J. A. Montgomery, Jr., J. E. Peralta, 
 F. Ogliaro, M. J. Bearpark, J. J. Heyd, E. N. Brothers, K. N. Kudin, 
 V. N. Staroverov, T. A. Keith, R. Kobayashi, J. Normand, 
 K. Raghavachari, A. P. Rendell, J. C. Burant, S. S. Iyengar, 
 J. Tomasi, M. Cossi, J. M. Millam, M. Klene, C. Adamo, R. Cammi, 
 J. W. Ochterski, R. L. Martin, K. Morokuma, O. Farkas, 
 J. B. Foresman, and D. J. Fox, Gaussian, Inc., Wallingford CT, 2016.
 
 ******************************************
 Gaussian 16:  ES64L-G16RevA.03 25-Dec-2016
                22-Jun-2021 
 ******************************************
 %nprocshared=4
 Will use up to    4 processors via shared memory.
 %mem=8GB
 ------------------
 # UwB97XD/Def2TZVP
 ------------------
 1/38=1,172=1/1;
 2/12=2,17=6,18=5,40=1/2;
 3/5=44,7=101,11=2,25=1,30=1,74=-58,116=2/1,2,3;
 4//1;
 5/5=2,38=5/2;
 6/7=2,8=2,9=2,10=2,28=1/1;
 99/5=1,9=1/99;
 ---------------
 something title
 ---------------
 Symbolic Z-matrix:
 Charge =  0 Multiplicity = 1
 N                    -0.4969   -0.17225  -1.28829 
 C                    -0.44495  -0.88594  -0.21565 
 N                    -1.54577  -1.13185   0.50313 
 N                    -2.6332   -1.31427   0.76188 
 O                     3.0627   -1.36396  -0.30709 
 N                     1.87288  -1.32091  -0.25395 
 C                     0.81624  -1.2572    0.4212 
 H                    -1.40818   0.19716  -1.55288 
 H                     0.75326  -1.56274   1.45397 
 
                          Input orientation:                          
 ---------------------------------------------------------------------
 Center     Atomic      Atomic             Coordinates (Angstroms)
 Number     Number       Type             X           Y           Z
 ---------------------------------------------------------------------
      1          7           0       -0.496902   -0.172253   -1.288290
      2          6           0       -0.444945   -0.885937   -0.215647
      3          7           0       -1.545770   -1.131852    0.503133
      4          7           0       -2.633202   -1.314266    0.761875
      5          8           0        3.062702   -1.363956   -0.307089
      6          7           0        1.872876   -1.320912   -0.253953
      7          6           0        0.816241   -1.257204    0.421198
      8          1           0       -1.408184    0.197159   -1.552881
      9          1           0        0.753259   -1.562744    1.453972
 ---------------------------------------------------------------------
                    Distance matrix (angstroms):
                    1          2          3          4          5
     1  N    0.000000
     2  C    1.289421   0.000000
     3  N    2.286952   1.337511   0.000000
     4  N    3.173507   2.434642   1.132577   0.000000
     5  O    3.879909   3.541250   4.684906   5.795557   0.000000
     6  N    2.829332   2.358594   3.506574   4.619165   1.191789
     7  C    2.413258   1.460822   2.366754   3.466695   2.363977
     8  H    1.018287   1.972085   2.452018   3.023768   4.896723
     9  H    3.319092   2.163652   2.524935   3.465380   2.911079
                    6          7          8          9
     6  N    0.000000
     7  C    1.255534   0.000000
     8  H    3.841498   3.310623   0.000000
     9  H    2.056461   1.078862   4.100032   0.000000
 Stoichiometry    C2H2N4O
 Framework group  C1[X(C2H2N4O)]
 Deg. of freedom    21
 Full point group                 C1      NOp   1
 Largest Abelian subgroup         C1      NOp   1
 Largest concise Abelian subgroup C1      NOp   1
                         Standard orientation:                         
 ---------------------------------------------------------------------
 Center     Atomic      Atomic             Coordinates (Angstroms)
 Number     Number       Type             X           Y           Z
 ---------------------------------------------------------------------
      1          7           0       -0.526488    1.544895    0.040301
      2          6           0       -0.560846    0.256655   -0.002890
      3          7           0       -1.723411   -0.403808    0.031263
      4          7           0       -2.820587   -0.642200   -0.117412
      5          8           0        2.954878   -0.165951   -0.042127
      6          7           0        1.767132   -0.104129   -0.118287
      7          6           0        0.634116   -0.567517    0.160837
      8          1           0       -1.420166    2.028145    0.108974
      9          1           0        0.465007   -1.598668    0.429303
 ---------------------------------------------------------------------
 Rotational constants (GHZ):           9.2965127           1.4353192           1.2492243
 Standard basis: def2TZVP (5D, 7F)
 There are   264 symmetry adapted cartesian basis functions of A   symmetry.
 There are   229 symmetry adapted basis functions of A   symmetry.
   229 basis functions,   373 primitive gaussians,   264 cartesian basis functions
    25 alpha electrons       25 beta electrons
       nuclear repulsion energy       256.8134526559 Hartrees.
 NAtoms=    9 NActive=    9 NUniq=    9 SFac= 1.00D+00 NAtFMM=   60 NAOKFM=F Big=F
 Integral buffers will be    131072 words long.
 Raffenetti 2 integral format.
 Two-electron integral symmetry is turned on.
 Nuclear repulsion after empirical dispersion term =      256.8109226769 Hartrees.
 One-electron integrals computed using PRISM.
   1 Symmetry operations used in ECPInt.
 ECPInt:  NShTT=    3655 NPrTT=   11788 LenC2=    3519 LenP2D=    9054.
 LDataN:  DoStor=T MaxTD1= 6 Len=  172
 NBasis=   229 RedAO= T EigKep=  1.78D-04  NBF=   229
 NBsUse=   229 1.00D-06 EigRej= -1.00D+00 NBFU=   229
 ExpMin= 9.52D-02 ExpMax= 2.70D+04 ExpMxC= 9.22D+02 IAcc=3 IRadAn=         5 AccDes= 0.00D+00
 Harris functional with IExCor= 4639 and IRadAn=       5 diagonalized for initial guess.
 HarFok:  IExCor= 4639 AccDes= 0.00D+00 IRadAn=         5 IDoV= 1 UseB2=F ITyADJ=14
 ICtDFT=  3500011 ScaDFX=  1.000000  1.000000  1.000000  1.000000
 FoFCou: FMM=F IPFlag=           0 FMFlag=      100000 FMFlg1=           0
         NFxFlg=           0 DoJE=T BraDBF=F KetDBF=T FulRan=T
         wScrn=  0.000000 ICntrl=       500 IOpCl=  0 I1Cent=   200000004 NGrid=           0
         NMat0=    1 NMatS0=      1 NMatT0=    0 NMatD0=    1 NMtDS0=    0 NMtDT0=    0
 Petite list used in FoFCou.
 Initial guess <Sx>= 0.0000 <Sy>= 0.0000 <Sz>= 0.0000 <S**2>=-0.0000 S=-0.0000
 Requested convergence on RMS density matrix=1.00D-08 within 128 cycles.
 Requested convergence on MAX density matrix=1.00D-06.
 Requested convergence on             energy=1.00D-06.
 No special actions if energy rises.
 Integral accuracy reduced to 1.0D-05 until final iterations.
 EnCoef did     4 forward-backward iterations
 Initial convergence to 1.0D-05 achieved.  Increase integral accuracy.
 SCF Done:  E(UwB97XD) =  -371.399228989     A.U. after   27 cycles
            NFock= 27  Conv=0.49D-08     -V/T= 2.0036
 <Sx>= 0.0000 <Sy>= 0.0000 <Sz>= 0.0000 <S**2>=-0.0000 S=-0.0000
 <L.S>=  0.00000000000    
 Annihilation of the first spin contaminant:
 S**2 before annihilation    -0.0000,   after     0.0000

 **********************************************************************

            Population analysis using the SCF density.

 **********************************************************************

 Orbital symmetries:
 Alpha Orbitals:
       Occupied  (A) (A) (A) (A) (A) (A) (A) (A) (A) (A) (A) (A)
                 (A) (A) (A) (A) (A) (A) (A) (A) (A) (A) (A) (A)
                 (A)
       Virtual   (A) (A) (A) (A) (A) (A) (A) (A) (A) (A) (A) (A)
                 (A) (A) (A) (A) (A) (A) (A) (A) (A) (A) (A) (A)
                 (A) (A) (A) (A) (A) (A) (A) (A) (A) (A) (A) (A)
                 (A) (A) (A) (A) (A) (A) (A) (A) (A) (A) (A) (A)
                 (A) (A) (A) (A) (A) (A) (A) (A) (A) (A) (A) (A)
                 (A) (A) (A) (A) (A) (A) (A) (A) (A) (A) (A) (A)
                 (A) (A) (A) (A) (A) (A) (A) (A) (A) (A) (A) (A)
                 (A) (A) (A) (A) (A) (A) (A) (A) (A) (A) (A) (A)
                 (A) (A) (A) (A) (A) (A) (A) (A) (A) (A) (A) (A)
                 (A) (A) (A) (A) (A) (A) (A) (A) (A) (A) (A) (A)
                 (A) (A) (A) (A) (A) (A) (A) (A) (A) (A) (A) (A)
                 (A) (A) (A) (A) (A) (A) (A) (A) (A) (A) (A) (A)
                 (A) (A) (A) (A) (A) (A) (A) (A) (A) (A) (A) (A)
                 (A) (A) (A) (A) (A) (A) (A) (A) (A) (A) (A) (A)
                 (A) (A) (A) (A) (A) (A) (A) (A) (A) (A) (A) (A)
                 (A) (A) (A) (A) (A) (A) (A) (A) (A) (A) (A) (A)
                 (A) (A) (A) (A) (A) (A) (A) (A) (A) (A) (A) (A)
 Beta  Orbitals:
       Occupied  (A) (A) (A) (A) (A) (A) (A) (A) (A) (A) (A) (A)
                 (A) (A) (A) (A) (A) (A) (A) (A) (A) (A) (A) (A)
                 (A)
       Virtual   (A) (A) (A) (A) (A) (A) (A) (A) (A) (A) (A) (A)
                 (A) (A) (A) (A) (A) (A) (A) (A) (A) (A) (A) (A)
                 (A) (A) (A) (A) (A) (A) (A) (A) (A) (A) (A) (A)
                 (A) (A) (A) (A) (A) (A) (A) (A) (A) (A) (A) (A)
                 (A) (A) (A) (A) (A) (A) (A) (A) (A) (A) (A) (A)
                 (A) (A) (A) (A) (A) (A) (A) (A) (A) (A) (A) (A)
                 (A) (A) (A) (A) (A) (A) (A) (A) (A) (A) (A) (A)
                 (A) (A) (A) (A) (A) (A) (A) (A) (A) (A) (A) (A)
                 (A) (A) (A) (A) (A) (A) (A) (A) (A) (A) (A) (A)
                 (A) (A) (A) (A) (A) (A) (A) (A) (A) (A) (A) (A)
                 (A) (A) (A) (A) (A) (A) (A) (A) (A) (A) (A) (A)
                 (A) (A) (A) (A) (A) (A) (A) (A) (A) (A) (A) (A)
                 (A) (A) (A) (A) (A) (A) (A) (A) (A) (A) (A) (A)
                 (A) (A) (A) (A) (A) (A) (A) (A) (A) (A) (A) (A)
                 (A) (A) (A) (A) (A) (A) (A) (A) (A) (A) (A) (A)
                 (A) (A) (A) (A) (A) (A) (A) (A) (A) (A) (A) (A)
                 (A) (A) (A) (A) (A) (A) (A) (A) (A) (A) (A) (A)
 The electronic state is 1-A.
 Alpha  occ. eigenvalues --  -19.30268 -14.63214 -14.59215 -14.55527 -14.43863
 Alpha  occ. eigenvalues --  -10.41763 -10.35287  -1.28409  -1.26726  -1.07280
 Alpha  occ. eigenvalues --   -0.98006  -0.92569  -0.74163  -0.66902  -0.64189
 Alpha  occ. eigenvalues --   -0.63542  -0.61947  -0.60029  -0.57559  -0.57123
 Alpha  occ. eigenvalues --   -0.49656  -0.45718  -0.39062  -0.33993  -0.24438
 Alpha virt. eigenvalues --   -0.08783  -0.04258   0.03346   0.10363   0.14137
 Alpha virt. eigenvalues --    0.15119   0.18203   0.18865   0.24413   0.27154
 Alpha virt. eigenvalues --    0.28447   0.30111   0.31909   0.32643   0.34115
 Alpha virt. eigenvalues --    0.35713   0.38420   0.40254   0.41585   0.44541
 Alpha virt. eigenvalues --    0.45515   0.46518   0.48278   0.49028   0.51060
 Alpha virt. eigenvalues --    0.53488   0.54422   0.55057   0.55388   0.57291
 Alpha virt. eigenvalues --    0.58016   0.60016   0.61511   0.65143   0.65656
 Alpha virt. eigenvalues --    0.67983   0.70519   0.73780   0.78585   0.79645
 Alpha virt. eigenvalues --    0.81059   0.83259   0.85966   0.90444   0.92217
 Alpha virt. eigenvalues --    0.97860   1.00121   1.01973   1.05074   1.11187
 Alpha virt. eigenvalues --    1.11417   1.15083   1.19560   1.25648   1.28288
 Alpha virt. eigenvalues --    1.30350   1.32323   1.34137   1.38523   1.43601
 Alpha virt. eigenvalues --    1.44046   1.47179   1.50845   1.51203   1.53490
 Alpha virt. eigenvalues --    1.55816   1.58411   1.61682   1.65991   1.66358
 Alpha virt. eigenvalues --    1.69706   1.71430   1.75705   1.78519   1.82272
 Alpha virt. eigenvalues --    1.84274   1.89112   1.90269   1.91785   1.97236
 Alpha virt. eigenvalues --    2.01906   2.05319   2.07838   2.12238   2.13240
 Alpha virt. eigenvalues --    2.14844   2.19070   2.23321   2.24970   2.26192
 Alpha virt. eigenvalues --    2.28720   2.34697   2.37759   2.39492   2.43918
 Alpha virt. eigenvalues --    2.47526   2.48227   2.56393   2.61583   2.64298
 Alpha virt. eigenvalues --    2.66983   2.71078   2.75461   2.82661   2.85692
 Alpha virt. eigenvalues --    2.89718   2.93288   2.95864   2.98030   2.99556
 Alpha virt. eigenvalues --    3.03172   3.08614   3.11962   3.14093   3.16420
 Alpha virt. eigenvalues --    3.19609   3.22628   3.25246   3.29207   3.37669
 Alpha virt. eigenvalues --    3.38361   3.42846   3.48155   3.50440   3.56137
 Alpha virt. eigenvalues --    3.58935   3.62772   3.65383   3.70866   3.73509
 Alpha virt. eigenvalues --    3.74894   3.78535   3.79025   3.83700   3.86748
 Alpha virt. eigenvalues --    3.89996   3.97586   4.03992   4.04300   4.08152
 Alpha virt. eigenvalues --    4.13452   4.20151   4.22422   4.29245   4.30959
 Alpha virt. eigenvalues --    4.37992   4.38705   4.42513   4.44266   4.49125
 Alpha virt. eigenvalues --    4.51374   4.56512   4.61174   4.63562   4.65243
 Alpha virt. eigenvalues --    4.70841   4.72557   4.76764   4.77160   4.78549
 Alpha virt. eigenvalues --    4.81897   4.85230   4.91831   4.93352   4.97675
 Alpha virt. eigenvalues --    5.04520   5.06054   5.08733   5.11522   5.13170
 Alpha virt. eigenvalues --    5.16227   5.21215   5.23475   5.24444   5.27651
 Alpha virt. eigenvalues --    5.39149   5.40315   5.46187   5.54938   5.60229
 Alpha virt. eigenvalues --    5.74347   5.79072   5.80887   5.88919   6.03704
 Alpha virt. eigenvalues --    6.35143   6.35868   6.41522   6.56186   6.60602
 Alpha virt. eigenvalues --    6.64794   6.75011   6.91710   7.05139   7.17036
 Alpha virt. eigenvalues --    7.37410   7.43047  22.91860  23.32356  31.74452
 Alpha virt. eigenvalues --   32.08394  32.62614  32.98227  44.20118
  Beta  occ. eigenvalues --  -19.30268 -14.63214 -14.59215 -14.55527 -14.43863
  Beta  occ. eigenvalues --  -10.41763 -10.35287  -1.28409  -1.26726  -1.07280
  Beta  occ. eigenvalues --   -0.98006  -0.92569  -0.74163  -0.66902  -0.64189
  Beta  occ. eigenvalues --   -0.63542  -0.61947  -0.60029  -0.57559  -0.57123
  Beta  occ. eigenvalues --   -0.49656  -0.45718  -0.39062  -0.33993  -0.24438
  Beta virt. eigenvalues --   -0.08783  -0.04258   0.03346   0.10363   0.14137
  Beta virt. eigenvalues --    0.15119   0.18203   0.18865   0.24413   0.27154
  Beta virt. eigenvalues --    0.28447   0.30111   0.31909   0.32643   0.34115
  Beta virt. eigenvalues --    0.35713   0.38420   0.40254   0.41585   0.44541
  Beta virt. eigenvalues --    0.45515   0.46518   0.48278   0.49028   0.51060
  Beta virt. eigenvalues --    0.53488   0.54422   0.55057   0.55388   0.57291
  Beta virt. eigenvalues --    0.58016   0.60016   0.61511   0.65143   0.65656
  Beta virt. eigenvalues --    0.67983   0.70519   0.73780   0.78585   0.79645
  Beta virt. eigenvalues --    0.81059   0.83259   0.85966   0.90444   0.92217
  Beta virt. eigenvalues --    0.97860   1.00121   1.01973   1.05074   1.11187
  Beta virt. eigenvalues --    1.11417   1.15083   1.19560   1.25648   1.28288
  Beta virt. eigenvalues --    1.30350   1.32323   1.34137   1.38523   1.43601
  Beta virt. eigenvalues --    1.44046   1.47179   1.50845   1.51203   1.53490
  Beta virt. eigenvalues --    1.55816   1.58411   1.61682   1.65991   1.66358
  Beta virt. eigenvalues --    1.69706   1.71430   1.75705   1.78519   1.82272
  Beta virt. eigenvalues --    1.84274   1.89112   1.90269   1.91785   1.97236
  Beta virt. eigenvalues --    2.01906   2.05319   2.07838   2.12238   2.13240
  Beta virt. eigenvalues --    2.14844   2.19070   2.23321   2.24970   2.26192
  Beta virt. eigenvalues --    2.28720   2.34697   2.37759   2.39492   2.43918
  Beta virt. eigenvalues --    2.47526   2.48227   2.56393   2.61583   2.64298
  Beta virt. eigenvalues --    2.66983   2.71078   2.75461   2.82661   2.85692
  Beta virt. eigenvalues --    2.89718   2.93288   2.95864   2.98030   2.99556
  Beta virt. eigenvalues --    3.03172   3.08614   3.11962   3.14093   3.16420
  Beta virt. eigenvalues --    3.19609   3.22628   3.25246   3.29207   3.37669
  Beta virt. eigenvalues --    3.38361   3.42846   3.48155   3.50440   3.56137
  Beta virt. eigenvalues --    3.58935   3.62772   3.65383   3.70866   3.73509
  Beta virt. eigenvalues --    3.74894   3.78535   3.79025   3.83700   3.86748
  Beta virt. eigenvalues --    3.89996   3.97586   4.03992   4.04300   4.08152
  Beta virt. eigenvalues --    4.13452   4.20151   4.22422   4.29245   4.30959
  Beta virt. eigenvalues --    4.37992   4.38705   4.42513   4.44266   4.49125
  Beta virt. eigenvalues --    4.51374   4.56512   4.61174   4.63562   4.65243
  Beta virt. eigenvalues --    4.70841   4.72557   4.76764   4.77160   4.78549
  Beta virt. eigenvalues --    4.81897   4.85230   4.91831   4.93352   4.97675
  Beta virt. eigenvalues --    5.04520   5.06054   5.08733   5.11522   5.13170
  Beta virt. eigenvalues --    5.16227   5.21215   5.23475   5.24444   5.27651
  Beta virt. eigenvalues --    5.39149   5.40315   5.46187   5.54938   5.60229
  Beta virt. eigenvalues --    5.74347   5.79072   5.80887   5.88919   6.03704
  Beta virt. eigenvalues --    6.35143   6.35868   6.41522   6.56186   6.60602
  Beta virt. eigenvalues --    6.64794   6.75011   6.91710   7.05139   7.17036
  Beta virt. eigenvalues --    7.37410   7.43047  22.91860  23.32356  31.74452
  Beta virt. eigenvalues --   32.08394  32.62614  32.98227  44.20118
          Condensed to atoms (all electrons):
               1          2          3          4          5          6
     1  N    6.544954   0.682422  -0.086189  -0.001612  -0.000958   0.000551
     2  C    0.682422   4.817062   0.314091  -0.055238   0.005220  -0.085622
     3  N   -0.086189   0.314091   6.289658   0.398789  -0.000158   0.000876
     4  N   -0.001612  -0.055238   0.398789   6.712380  -0.000003   0.000663
     5  O   -0.000958   0.005220  -0.000158  -0.000003   8.094832   0.251591
     6  N    0.000551  -0.085622   0.000876   0.000663   0.251591   6.077424
     7  C   -0.096428   0.273405  -0.046381   0.006201  -0.066872   0.583373
     8  H    0.347101  -0.060118  -0.010937   0.001073   0.000020   0.000041
     9  H   -0.002670  -0.140140   0.023101   0.004442   0.003689  -0.027947
               7          8          9
     1  N   -0.096428   0.347101  -0.002670
     2  C    0.273405  -0.060118  -0.140140
     3  N   -0.046381  -0.010937   0.023101
     4  N    0.006201   0.001073   0.004442
     5  O   -0.066872   0.000020   0.003689
     6  N    0.583373   0.000041  -0.027947
     7  C    5.068591   0.014795   0.431081
     8  H    0.014795   0.487626  -0.000352
     9  H    0.431081  -0.000352   0.585674
          Atomic-Atomic Spin Densities.
               1          2          3          4          5          6
     1  N    0.000000  -0.000000  -0.000000   0.000000  -0.000000   0.000000
     2  C   -0.000000   0.000000   0.000000  -0.000000  -0.000000   0.000000
     3  N   -0.000000   0.000000   0.000000  -0.000000   0.000000  -0.000000
     4  N    0.000000  -0.000000  -0.000000   0.000000  -0.000000   0.000000
     5  O   -0.000000  -0.000000   0.000000  -0.000000  -0.000000   0.000000
     6  N    0.000000   0.000000  -0.000000   0.000000   0.000000  -0.000000
     7  C   -0.000000  -0.000000   0.000000   0.000000   0.000000  -0.000000
     8  H    0.000000   0.000000  -0.000000   0.000000   0.000000  -0.000000
     9  H   -0.000000   0.000000  -0.000000  -0.000000  -0.000000   0.000000
               7          8          9
     1  N   -0.000000   0.000000  -0.000000
     2  C   -0.000000   0.000000   0.000000
     3  N    0.000000  -0.000000  -0.000000
     4  N    0.000000   0.000000  -0.000000
     5  O    0.000000   0.000000  -0.000000
     6  N   -0.000000  -0.000000   0.000000
     7  C   -0.000000   0.000000   0.000000
     8  H    0.000000  -0.000000   0.000000
     9  H    0.000000   0.000000  -0.000000
 Mulliken charges and spin densities:
               1          2
     1  N   -0.387171   0.000000
     2  C    0.248917   0.000000
     3  N    0.117149   0.000000
     4  N   -0.066695   0.000000
     5  O   -0.287361  -0.000000
     6  N    0.199052  -0.000000
     7  C   -0.167765  -0.000000
     8  H    0.220752  -0.000000
     9  H    0.123123  -0.000000
 Sum of Mulliken charges =  -0.00000  -0.00000
 Mulliken charges and spin densities with hydrogens summed into heavy atoms:
               1          2
     1  N   -0.166419   0.000000
     2  C    0.248917   0.000000
     3  N    0.117149   0.000000
     4  N   -0.066695   0.000000
     5  O   -0.287361  -0.000000
     6  N    0.199052  -0.000000
     7  C   -0.044643  -0.000000
 Electronic spatial extent (au):  <R**2>=            831.0524
 Charge=             -0.0000 electrons
 Dipole moment (field-independent basis, Debye):
    X=             -4.2597    Y=             -1.7453    Z=              0.4802  Tot=              4.6283
 Quadrupole moment (field-independent basis, Debye-Ang):
   XX=            -44.8567   YY=            -38.0939   ZZ=            -39.2802
   XY=             -3.2558   XZ=              0.0837   YZ=              0.1266
 Traceless Quadrupole moment (field-independent basis, Debye-Ang):
   XX=             -4.1131   YY=              2.6497   ZZ=              1.4634
   XY=             -3.2558   XZ=              0.0837   YZ=              0.1266
 Octapole moment (field-independent basis, Debye-Ang**2):
  XXX=            -19.0740  YYY=             -5.0849  ZZZ=             -0.4724  XYY=             -3.9933
  XXY=              8.2179  XXZ=              1.6096  XZZ=              1.3783  YZZ=             -1.0210
  YYZ=              0.9773  XYZ=              0.4184
 Hexadecapole moment (field-independent basis, Debye-Ang**3):
 XXXX=           -918.0602 YYYY=           -169.4314 ZZZZ=            -39.9997 XXXY=            -16.6929
 XXXZ=             -2.2211 YYYX=            -15.8989 YYYZ=              0.2201 ZZZX=             -0.7309
 ZZZY=              0.8317 XXYY=           -150.7194 XXZZ=           -140.7085 YYZZ=            -37.7007
 XXYZ=              2.1381 YYXZ=             -0.9984 ZZXY=             -0.3845
 N-N= 2.568109226769D+02 E-N=-1.382254212727D+03  KE= 3.700831743695D+02
                          Isotropic Fermi Contact Couplings
        Atom                 a.u.       MegaHertz       Gauss      10(-4) cm-1
     1  N(14)              0.00000       0.00000       0.00000       0.00000
     2  C(13)             -0.00000      -0.00000      -0.00000      -0.00000
     3  N(14)              0.00000       0.00000       0.00000       0.00000
     4  N(14)              0.00000       0.00000       0.00000       0.00000
     5  O(17)             -0.00000       0.00000       0.00000       0.00000
     6  N(14)             -0.00000      -0.00000      -0.00000      -0.00000
     7  C(13)             -0.00000      -0.00000      -0.00000      -0.00000
     8  H(1)              -0.00000      -0.00000      -0.00000      -0.00000
     9  H(1)              -0.00000      -0.00000      -0.00000      -0.00000
 --------------------------------------------------------
       Center         ----  Spin Dipole Couplings  ----
                      3XX-RR        3YY-RR        3ZZ-RR
 --------------------------------------------------------
     1   Atom       -0.000000     -0.000000      0.000000
     2   Atom       -0.000000     -0.000000      0.000000
     3   Atom       -0.000000     -0.000000      0.000000
     4   Atom       -0.000000     -0.000000      0.000000
     5   Atom        0.000000     -0.000000      0.000000
     6   Atom        0.000000     -0.000000      0.000000
     7   Atom       -0.000000      0.000000     -0.000000
     8   Atom        0.000000     -0.000000     -0.000000
     9   Atom        0.000000     -0.000000      0.000000
 --------------------------------------------------------
                        XY            XZ            YZ
 --------------------------------------------------------
     1   Atom        0.000000      0.000000     -0.000000
     2   Atom        0.000000      0.000000      0.000000
     3   Atom        0.000000     -0.000000      0.000000
     4   Atom        0.000000     -0.000000     -0.000000
     5   Atom        0.000000     -0.000000      0.000000
     6   Atom        0.000000     -0.000000      0.000000
     7   Atom       -0.000000      0.000000      0.000000
     8   Atom       -0.000000     -0.000000      0.000000
     9   Atom       -0.000000      0.000000      0.000000
 --------------------------------------------------------


 ---------------------------------------------------------------------------------
              Anisotropic Spin Dipole Couplings in Principal Axis System
 ---------------------------------------------------------------------------------

       Atom             a.u.   MegaHertz   Gauss  10(-4) cm-1        Axes

              Baa    -0.0000    -0.000    -0.000    -0.000  0.8784 -0.4747 -0.0556
     1 N(14)  Bbb    -0.0000    -0.000    -0.000    -0.000  0.4753  0.8798 -0.0038
              Bcc     0.0000     0.000     0.000     0.000  0.0507 -0.0231  0.9984
 
              Baa    -0.0000    -0.000    -0.000    -0.000  0.8902 -0.4141 -0.1899
     2 C(13)  Bbb    -0.0000    -0.000    -0.000    -0.000  0.2704  0.8158 -0.5112
              Bcc     0.0000     0.000     0.000     0.000  0.3666  0.4038  0.8382
 
              Baa    -0.0000    -0.000    -0.000    -0.000 -0.2864  0.9580 -0.0146
     3 N(14)  Bbb    -0.0000    -0.000    -0.000    -0.000  0.9581  0.2865  0.0014
              Bcc     0.0000     0.000     0.000     0.000 -0.0055  0.0136  0.9999
 
              Baa    -0.0000    -0.000    -0.000    -0.000  0.9961 -0.0290  0.0838
     4 N(14)  Bbb    -0.0000    -0.000    -0.000    -0.000  0.0249  0.9984  0.0504
              Bcc     0.0000     0.000     0.000     0.000 -0.0852 -0.0481  0.9952
 
              Baa    -0.0000     0.000     0.000     0.000 -0.1070  0.9721 -0.2086
     5 O(17)  Bbb     0.0000    -0.000    -0.000    -0.000  0.9910  0.1212  0.0568
              Bcc     0.0000    -0.000    -0.000    -0.000 -0.0805  0.2007  0.9763
 
              Baa    -0.0000    -0.000    -0.000    -0.000 -0.1311  0.9324 -0.3368
     6 N(14)  Bbb     0.0000     0.000     0.000     0.000  0.9828  0.0777 -0.1676
              Bcc     0.0000     0.000     0.000     0.000  0.1302  0.3530  0.9265
 
              Baa    -0.0000    -0.000    -0.000    -0.000 -0.6863 -0.1647  0.7084
     7 C(13)  Bbb     0.0000     0.000     0.000     0.000  0.5604  0.5012  0.6594
              Bcc     0.0000     0.000     0.000     0.000 -0.4637  0.8495 -0.2517
 
              Baa    -0.0000    -0.000    -0.000    -0.000  0.4891  0.8715 -0.0363
     8 H(1)   Bbb    -0.0000    -0.000    -0.000    -0.000  0.0508  0.0131  0.9986
              Bcc     0.0000     0.000     0.000     0.000  0.8707 -0.4903 -0.0378
 
              Baa    -0.0000    -0.000    -0.000    -0.000  0.4898  0.8604 -0.1406
     9 H(1)   Bbb     0.0000     0.000     0.000     0.000 -0.3356  0.3349  0.8805
              Bcc     0.0000     0.000     0.000     0.000  0.8047 -0.3840  0.4528
 

 ---------------------------------------------------------------------------------

 1\1\GINC-NODE305\SP\UwB97XD\def2TZVP\C2H2N4O1\MHARRIS\22-Jun-2021\0\\#
  UwB97XD/Def2TZVP\\something title\\0,1\N,0,-0.496902,-0.172253,-1.288
 29\C,0,-0.444945,-0.885937,-0.215647\N,0,-1.54577,-1.131852,0.503133\N
 ,0,-2.633202,-1.314266,0.761875\O,0,3.062702,-1.363956,-0.307089\N,0,1
 .872876,-1.320912,-0.253953\C,0,0.816241,-1.257204,0.421198\H,0,-1.408
 184,0.197159,-1.552881\H,0,0.753259,-1.562744,1.453972\\Version=ES64L-
 G16RevA.03\State=1-A\HF=-371.399229\S2=0.\S2-1=0.\S2A=0.\RMSD=4.944e-0
 9\Dipole=-1.5891867,-0.0961698,0.8837559\Quadrupole=-2.6233587,1.55526
 9,1.0680898,-0.9966851,2.5813515,-0.4496497\PG=C01 [X(C2H2N4O1)]\\@


 EXPERIMENTALISTS THINK SILICON IS REALLY FUN TO USE
     ITS PLACE IN NOVEL COMPOUNDS IS CERTAIN TO AMUSE
 THEY SIT ALL DAY IN LABORATORIES MAKING ALL THIS SLUDGE
     "LOADED WITH THE SILICON THEY SAY", TO ME IT LOOKS LIKE FUDGE.
 FOR HAPPY THOUGH THEY BE WITH CRUD, I'D LIKE TO KNOW A LITTLE
      ABOUT THE PI BONDS ON THE EDGE AND SIGMAS IN THE MIDDLE.

 SO LETS DERIVE A WAVEFUNCTION.....6-31G*
     USE AN OPTIMAL GEOMETRY AND SEE WHERE ELECTRONS ARE.
 BUT WHAT OF CORRELATION?  ASKS THE WIRY LITTLE SKEPTIC.
     WE'LL THROW IN PERTURBATION AS AN ELECTRON ANTISEPTIC.
 AND WHEN THE PROGRAM GIVES US ANSWERS IN THEM WE CAN TRUST
     SINCE NOBODY CAN MAKE THE STUFF, WE HAVE NO CHOICE, WE MUST.

 SO THEORY GUYS HAVE GOT IT MADE, IN ROOMS FREE OF POLLUTION.
     INSTEAD OF PROBLEMS WITH THE REFLUX, THEY HAVE ONLY SOLUTIONS.
 AND WHEN THE FEDS ANNOUNCE THE LIST OF CARCINOGENIC TERRORS,
     THE THEORISTS SIT SAFELY AT THEIR TERMINALS FIXING ERRORS.
 IN OTHER WORDS, EXPERIMENTALISTS WILL LIKELY DIE OF CANCER
     FROM WORKING HARD YET FRUITLESSLY...TILL THEORY GIVES THE ANSWER.
          -- THOMAS A. HOLME, 1983
 Job cpu time:       0 days  0 hours 23 minutes 39.5 seconds.
 Elapsed time:       0 days  0 hours  5 minutes 55.5 seconds.
 File lengths (MBytes):  RWF=     54 Int=      0 D2E=      0 Chk=      5 Scr=      1
 Normal termination of Gaussian 16 at Tue Jun 22 16:43:45 2021.
