 Entering Gaussian System, Link 0=/software/kemi/g16/avx2/g16/g16
 Initial command:
 /software/kemi/g16/avx2/g16/l1.exe "/scratch/23935644/Gau-14233.inp" -scrdir="/scratch/23935644/"
 Entering Link 1 = /software/kemi/g16/avx2/g16/l1.exe PID=     14234.
  
 Copyright (c) 1988,1990,1992,1993,1995,1998,2003,2009,2016,
            Gaussian, Inc.  All Rights Reserved.
  
 This is part of the Gaussian(R) 16 program.  It is based on
 the Gaussian(R) 09 system (copyright 2009, Gaussian, Inc.),
 the Gaussian(R) 03 system (copyright 2003, Gaussian, Inc.),
 the Gaussian(R) 98 system (copyright 1998, Gaussian, Inc.),
 the Gaussian(R) 94 system (copyright 1995, Gaussian, Inc.),
 the Gaussian 92(TM) system (copyright 1992, Gaussian, Inc.),
 the Gaussian 90(TM) system (copyright 1990, Gaussian, Inc.),
 the Gaussian 88(TM) system (copyright 1988, Gaussian, Inc.),
 the Gaussian 86(TM) system (copyright 1986, Carnegie Mellon
 University), and the Gaussian 82(TM) system (copyright 1983,
 Carnegie Mellon University). Gaussian is a federally registered
 trademark of Gaussian, Inc.
  
 This software contains proprietary and confidential information,
 including trade secrets, belonging to Gaussian, Inc.
  
 This software is provided under written license and may be
 used, copied, transmitted, or stored only in accord with that
 written license.
  
 The following legend is applicable only to US Government
 contracts under FAR:
  
                    RESTRICTED RIGHTS LEGEND
  
 Use, reproduction and disclosure by the US Government is
 subject to restrictions as set forth in subparagraphs (a)
 and (c) of the Commercial Computer Software - Restricted
 Rights clause in FAR 52.227-19.
  
 Gaussian, Inc.
 340 Quinnipiac St., Bldg. 40, Wallingford CT 06492
  
  
 ---------------------------------------------------------------
 Warning -- This program may not be used in any manner that
 competes with the business of Gaussian, Inc. or will provide
 assistance to any competitor of Gaussian, Inc.  The licensee
 of this program is prohibited from giving any competitor of
 Gaussian, Inc. access to this program.  By using this program,
 the user acknowledges that Gaussian, Inc. is engaged in the
 business of creating and licensing software in the field of
 computational chemistry and represents and warrants to the
 licensee that it is not a competitor of Gaussian, Inc. and that
 it will not use this program in any manner prohibited above.
 ---------------------------------------------------------------
  

 Cite this work as:
 Gaussian 16, Revision A.03,
 M. J. Frisch, G. W. Trucks, H. B. Schlegel, G. E. Scuseria, 
 M. A. Robb, J. R. Cheeseman, G. Scalmani, V. Barone, 
 G. A. Petersson, H. Nakatsuji, X. Li, M. Caricato, A. V. Marenich, 
 J. Bloino, B. G. Janesko, R. Gomperts, B. Mennucci, H. P. Hratchian, 
 J. V. Ortiz, A. F. Izmaylov, J. L. Sonnenberg, D. Williams-Young, 
 F. Ding, F. Lipparini, F. Egidi, J. Goings, B. Peng, A. Petrone, 
 T. Henderson, D. Ranasinghe, V. G. Zakrzewski, J. Gao, N. Rega, 
 G. Zheng, W. Liang, M. Hada, M. Ehara, K. Toyota, R. Fukuda, 
 J. Hasegawa, M. Ishida, T. Nakajima, Y. Honda, O. Kitao, H. Nakai, 
 T. Vreven, K. Throssell, J. A. Montgomery, Jr., J. E. Peralta, 
 F. Ogliaro, M. J. Bearpark, J. J. Heyd, E. N. Brothers, K. N. Kudin, 
 V. N. Staroverov, T. A. Keith, R. Kobayashi, J. Normand, 
 K. Raghavachari, A. P. Rendell, J. C. Burant, S. S. Iyengar, 
 J. Tomasi, M. Cossi, J. M. Millam, M. Klene, C. Adamo, R. Cammi, 
 J. W. Ochterski, R. L. Martin, K. Morokuma, O. Farkas, 
 J. B. Foresman, and D. J. Fox, Gaussian, Inc., Wallingford CT, 2016.
 
 ******************************************
 Gaussian 16:  ES64L-G16RevA.03 25-Dec-2016
                22-Jun-2021 
 ******************************************
 %nprocshared=4
 Will use up to    4 processors via shared memory.
 %mem=8GB
 ------------------
 # UwB97XD/Def2TZVP
 ------------------
 1/38=1,172=1/1;
 2/12=2,17=6,18=5,40=1/2;
 3/5=44,7=101,11=2,25=1,30=1,74=-58,116=2/1,2,3;
 4//1;
 5/5=2,38=5/2;
 6/7=2,8=2,9=2,10=2,28=1/1;
 99/5=1,9=1/99;
 ---------------
 something title
 ---------------
 Symbolic Z-matrix:
 Charge =  0 Multiplicity = 1
 N                    -0.50675  -0.16089  -1.28787 
 C                    -0.44483  -0.8648   -0.20975 
 N                    -1.53585  -1.09541   0.53548 
 N                    -2.62754  -1.3949    0.71455 
 O                     3.06839  -1.40217  -0.28978 
 N                     1.85776  -1.36129  -0.28692 
 C                     0.82031  -1.22313   0.42452 
 H                    -1.41817   0.22031  -1.5397 
 H                     0.76277  -1.52969   1.4618 
 
                          Input orientation:                          
 ---------------------------------------------------------------------
 Center     Atomic      Atomic             Coordinates (Angstroms)
 Number     Number       Type             X           Y           Z
 ---------------------------------------------------------------------
      1          7           0       -0.506747   -0.160887   -1.287870
      2          6           0       -0.444832   -0.864796   -0.209747
      3          7           0       -1.535846   -1.095411    0.535475
      4          7           0       -2.627544   -1.394901    0.714546
      5          8           0        3.068388   -1.402174   -0.289783
      6          7           0        1.857756   -1.361289   -0.286924
      7          6           0        0.820306   -1.223128    0.424518
      8          1           0       -1.418173    0.220308   -1.539700
      9          1           0        0.762766   -1.529685    1.461804
 ---------------------------------------------------------------------
                    Distance matrix (angstroms):
                    1          2          3          4          5
     1  N    0.000000
     2  C    1.289058   0.000000
     3  N    2.292808   1.341212   0.000000
     4  N    3.167055   2.428901   1.146109   0.000000
     5  O    3.913893   3.554982   4.687657   5.783802   0.000000
     6  N    2.834384   2.356772   3.501937   4.595866   1.211326
     7  C    2.412820   1.459886   2.362218   3.464288   2.365620
     8  H    1.019522   1.973225   2.459942   3.025410   4.931934
     9  H    3.323549   2.166669   2.516008   3.474300   2.898311
                    6          7          8          9
     6  N    0.000000
     7  C    1.265520   0.000000
     8  H    3.847416   3.309448   0.000000
     9  H    2.070123   1.083167   4.102194   0.000000
 Stoichiometry    C2H2N4O
 Framework group  C1[X(C2H2N4O)]
 Deg. of freedom    21
 Full point group                 C1      NOp   1
 Largest Abelian subgroup         C1      NOp   1
 Largest concise Abelian subgroup C1      NOp   1
                         Standard orientation:                         
 ---------------------------------------------------------------------
 Center     Atomic      Atomic             Coordinates (Angstroms)
 Number     Number       Type             X           Y           Z
 ---------------------------------------------------------------------
      1          7           0       -0.546498    1.551421    0.036484
      2          6           0       -0.565163    0.262567    0.023085
      3          7           0       -1.718447   -0.418389    0.094395
      4          7           0       -2.801460   -0.660644   -0.191892
      5          8           0        2.960940   -0.183005   -0.054129
      6          7           0        1.758287   -0.086374   -0.161828
      7          6           0        0.637713   -0.543813    0.207770
      8          1           0       -1.445244    2.026245    0.115366
      9          1           0        0.479255   -1.576827    0.492416
 ---------------------------------------------------------------------
 Rotational constants (GHZ):           9.0682649           1.4362010           1.2511692
 Standard basis: def2TZVP (5D, 7F)
 There are   264 symmetry adapted cartesian basis functions of A   symmetry.
 There are   229 symmetry adapted basis functions of A   symmetry.
   229 basis functions,   373 primitive gaussians,   264 cartesian basis functions
    25 alpha electrons       25 beta electrons
       nuclear repulsion energy       255.9010992734 Hartrees.
 NAtoms=    9 NActive=    9 NUniq=    9 SFac= 1.00D+00 NAtFMM=   60 NAOKFM=F Big=F
 Integral buffers will be    131072 words long.
 Raffenetti 2 integral format.
 Two-electron integral symmetry is turned on.
 Nuclear repulsion after empirical dispersion term =      255.8985713996 Hartrees.
 One-electron integrals computed using PRISM.
   1 Symmetry operations used in ECPInt.
 ECPInt:  NShTT=    3655 NPrTT=   11788 LenC2=    3520 LenP2D=    9051.
 LDataN:  DoStor=T MaxTD1= 6 Len=  172
 NBasis=   229 RedAO= T EigKep=  1.99D-04  NBF=   229
 NBsUse=   229 1.00D-06 EigRej= -1.00D+00 NBFU=   229
 ExpMin= 9.52D-02 ExpMax= 2.70D+04 ExpMxC= 9.22D+02 IAcc=3 IRadAn=         5 AccDes= 0.00D+00
 Harris functional with IExCor= 4639 and IRadAn=       5 diagonalized for initial guess.
 HarFok:  IExCor= 4639 AccDes= 0.00D+00 IRadAn=         5 IDoV= 1 UseB2=F ITyADJ=14
 ICtDFT=  3500011 ScaDFX=  1.000000  1.000000  1.000000  1.000000
 FoFCou: FMM=F IPFlag=           0 FMFlag=      100000 FMFlg1=           0
         NFxFlg=           0 DoJE=T BraDBF=F KetDBF=T FulRan=T
         wScrn=  0.000000 ICntrl=       500 IOpCl=  0 I1Cent=   200000004 NGrid=           0
         NMat0=    1 NMatS0=      1 NMatT0=    0 NMatD0=    1 NMtDS0=    0 NMtDT0=    0
 Petite list used in FoFCou.
 Initial guess <Sx>= 0.0000 <Sy>= 0.0000 <Sz>= 0.0000 <S**2>=-0.0000 S=-0.0000
 Requested convergence on RMS density matrix=1.00D-08 within 128 cycles.
 Requested convergence on MAX density matrix=1.00D-06.
 Requested convergence on             energy=1.00D-06.
 No special actions if energy rises.
 Integral accuracy reduced to 1.0D-05 until final iterations.
 Initial convergence to 1.0D-05 achieved.  Increase integral accuracy.
 SCF Done:  E(UwB97XD) =  -371.401856085     A.U. after   26 cycles
            NFock= 26  Conv=0.74D-08     -V/T= 2.0039
 <Sx>= 0.0000 <Sy>= 0.0000 <Sz>= 0.0000 <S**2>=-0.0000 S=-0.0000
 <L.S>=  0.00000000000    
 Annihilation of the first spin contaminant:
 S**2 before annihilation    -0.0000,   after     0.0000

 **********************************************************************

            Population analysis using the SCF density.

 **********************************************************************

 Orbital symmetries:
 Alpha Orbitals:
       Occupied  (A) (A) (A) (A) (A) (A) (A) (A) (A) (A) (A) (A)
                 (A) (A) (A) (A) (A) (A) (A) (A) (A) (A) (A) (A)
                 (A)
       Virtual   (A) (A) (A) (A) (A) (A) (A) (A) (A) (A) (A) (A)
                 (A) (A) (A) (A) (A) (A) (A) (A) (A) (A) (A) (A)
                 (A) (A) (A) (A) (A) (A) (A) (A) (A) (A) (A) (A)
                 (A) (A) (A) (A) (A) (A) (A) (A) (A) (A) (A) (A)
                 (A) (A) (A) (A) (A) (A) (A) (A) (A) (A) (A) (A)
                 (A) (A) (A) (A) (A) (A) (A) (A) (A) (A) (A) (A)
                 (A) (A) (A) (A) (A) (A) (A) (A) (A) (A) (A) (A)
                 (A) (A) (A) (A) (A) (A) (A) (A) (A) (A) (A) (A)
                 (A) (A) (A) (A) (A) (A) (A) (A) (A) (A) (A) (A)
                 (A) (A) (A) (A) (A) (A) (A) (A) (A) (A) (A) (A)
                 (A) (A) (A) (A) (A) (A) (A) (A) (A) (A) (A) (A)
                 (A) (A) (A) (A) (A) (A) (A) (A) (A) (A) (A) (A)
                 (A) (A) (A) (A) (A) (A) (A) (A) (A) (A) (A) (A)
                 (A) (A) (A) (A) (A) (A) (A) (A) (A) (A) (A) (A)
                 (A) (A) (A) (A) (A) (A) (A) (A) (A) (A) (A) (A)
                 (A) (A) (A) (A) (A) (A) (A) (A) (A) (A) (A) (A)
                 (A) (A) (A) (A) (A) (A) (A) (A) (A) (A) (A) (A)
 Beta  Orbitals:
       Occupied  (A) (A) (A) (A) (A) (A) (A) (A) (A) (A) (A) (A)
                 (A) (A) (A) (A) (A) (A) (A) (A) (A) (A) (A) (A)
                 (A)
       Virtual   (A) (A) (A) (A) (A) (A) (A) (A) (A) (A) (A) (A)
                 (A) (A) (A) (A) (A) (A) (A) (A) (A) (A) (A) (A)
                 (A) (A) (A) (A) (A) (A) (A) (A) (A) (A) (A) (A)
                 (A) (A) (A) (A) (A) (A) (A) (A) (A) (A) (A) (A)
                 (A) (A) (A) (A) (A) (A) (A) (A) (A) (A) (A) (A)
                 (A) (A) (A) (A) (A) (A) (A) (A) (A) (A) (A) (A)
                 (A) (A) (A) (A) (A) (A) (A) (A) (A) (A) (A) (A)
                 (A) (A) (A) (A) (A) (A) (A) (A) (A) (A) (A) (A)
                 (A) (A) (A) (A) (A) (A) (A) (A) (A) (A) (A) (A)
                 (A) (A) (A) (A) (A) (A) (A) (A) (A) (A) (A) (A)
                 (A) (A) (A) (A) (A) (A) (A) (A) (A) (A) (A) (A)
                 (A) (A) (A) (A) (A) (A) (A) (A) (A) (A) (A) (A)
                 (A) (A) (A) (A) (A) (A) (A) (A) (A) (A) (A) (A)
                 (A) (A) (A) (A) (A) (A) (A) (A) (A) (A) (A) (A)
                 (A) (A) (A) (A) (A) (A) (A) (A) (A) (A) (A) (A)
                 (A) (A) (A) (A) (A) (A) (A) (A) (A) (A) (A) (A)
                 (A) (A) (A) (A) (A) (A) (A) (A) (A) (A) (A) (A)
 The electronic state is 1-A.
 Alpha  occ. eigenvalues --  -19.29927 -14.63436 -14.59759 -14.55426 -14.44242
 Alpha  occ. eigenvalues --  -10.42098 -10.35377  -1.27901  -1.25132  -1.07274
 Alpha  occ. eigenvalues --   -0.97497  -0.92634  -0.74178  -0.67006  -0.64116
 Alpha  occ. eigenvalues --   -0.63250  -0.61872  -0.59759  -0.57206  -0.56205
 Alpha  occ. eigenvalues --   -0.49121  -0.45720  -0.39362  -0.33905  -0.25289
 Alpha virt. eigenvalues --   -0.09542  -0.04876   0.02302   0.09803   0.13608
 Alpha virt. eigenvalues --    0.15033   0.18493   0.19326   0.24209   0.27000
 Alpha virt. eigenvalues --    0.28298   0.30108   0.31956   0.32614   0.34138
 Alpha virt. eigenvalues --    0.35913   0.37959   0.40271   0.41589   0.44548
 Alpha virt. eigenvalues --    0.45089   0.46338   0.48143   0.49185   0.50748
 Alpha virt. eigenvalues --    0.53256   0.54053   0.54565   0.54790   0.57006
 Alpha virt. eigenvalues --    0.57633   0.59921   0.61599   0.64197   0.64450
 Alpha virt. eigenvalues --    0.67562   0.70415   0.71999   0.75958   0.78650
 Alpha virt. eigenvalues --    0.79572   0.81802   0.86718   0.90815   0.92367
 Alpha virt. eigenvalues --    0.99395   1.00230   1.01354   1.05009   1.09220
 Alpha virt. eigenvalues --    1.11421   1.14282   1.21822   1.24742   1.29605
 Alpha virt. eigenvalues --    1.30307   1.31049   1.32619   1.38761   1.42606
 Alpha virt. eigenvalues --    1.43548   1.46960   1.49909   1.50831   1.53589
 Alpha virt. eigenvalues --    1.55866   1.58563   1.60662   1.63472   1.66189
 Alpha virt. eigenvalues --    1.68547   1.71027   1.75899   1.77976   1.80072
 Alpha virt. eigenvalues --    1.84387   1.86859   1.89443   1.91530   1.97422
 Alpha virt. eigenvalues --    2.01804   2.05305   2.07166   2.10594   2.12466
 Alpha virt. eigenvalues --    2.14209   2.18228   2.22296   2.24241   2.25180
 Alpha virt. eigenvalues --    2.29424   2.32127   2.36851   2.40498   2.43772
 Alpha virt. eigenvalues --    2.46195   2.49449   2.56484   2.60212   2.64169
 Alpha virt. eigenvalues --    2.65930   2.67205   2.73850   2.80706   2.85146
 Alpha virt. eigenvalues --    2.87945   2.91587   2.93528   2.96509   2.98577
 Alpha virt. eigenvalues --    3.01768   3.07197   3.11069   3.12665   3.15608
 Alpha virt. eigenvalues --    3.19527   3.23360   3.26638   3.27196   3.34867
 Alpha virt. eigenvalues --    3.37435   3.43133   3.45954   3.48712   3.55127
 Alpha virt. eigenvalues --    3.57144   3.60906   3.64627   3.70472   3.73017
 Alpha virt. eigenvalues --    3.73650   3.75344   3.78610   3.82826   3.85511
 Alpha virt. eigenvalues --    3.89763   3.94069   4.03618   4.03972   4.07558
 Alpha virt. eigenvalues --    4.10035   4.20513   4.22458   4.30072   4.31991
 Alpha virt. eigenvalues --    4.38054   4.38489   4.42391   4.43739   4.48147
 Alpha virt. eigenvalues --    4.51262   4.56257   4.61362   4.62950   4.66868
 Alpha virt. eigenvalues --    4.70657   4.73191   4.75509   4.78362   4.79462
 Alpha virt. eigenvalues --    4.83459   4.88372   4.91115   4.92193   4.99443
 Alpha virt. eigenvalues --    5.03689   5.04141   5.07540   5.10559   5.10884
 Alpha virt. eigenvalues --    5.14247   5.21229   5.23697   5.24970   5.25359
 Alpha virt. eigenvalues --    5.37488   5.38922   5.44834   5.54855   5.57141
 Alpha virt. eigenvalues --    5.69464   5.77464   5.78984   5.86000   6.00246
 Alpha virt. eigenvalues --    6.35333   6.35656   6.36745   6.49285   6.53786
 Alpha virt. eigenvalues --    6.58766   6.71224   6.85311   7.00887   7.12225
 Alpha virt. eigenvalues --    7.30500   7.44242  22.87826  23.29381  31.69989
 Alpha virt. eigenvalues --   32.07754  32.50038  32.87906  44.12566
  Beta  occ. eigenvalues --  -19.29927 -14.63436 -14.59759 -14.55426 -14.44242
  Beta  occ. eigenvalues --  -10.42098 -10.35377  -1.27901  -1.25132  -1.07274
  Beta  occ. eigenvalues --   -0.97497  -0.92634  -0.74178  -0.67006  -0.64116
  Beta  occ. eigenvalues --   -0.63250  -0.61872  -0.59759  -0.57206  -0.56205
  Beta  occ. eigenvalues --   -0.49121  -0.45720  -0.39362  -0.33905  -0.25289
  Beta virt. eigenvalues --   -0.09542  -0.04876   0.02302   0.09803   0.13608
  Beta virt. eigenvalues --    0.15033   0.18493   0.19326   0.24209   0.27000
  Beta virt. eigenvalues --    0.28298   0.30108   0.31956   0.32614   0.34138
  Beta virt. eigenvalues --    0.35913   0.37959   0.40271   0.41589   0.44548
  Beta virt. eigenvalues --    0.45089   0.46338   0.48143   0.49185   0.50748
  Beta virt. eigenvalues --    0.53256   0.54053   0.54565   0.54790   0.57006
  Beta virt. eigenvalues --    0.57633   0.59921   0.61599   0.64197   0.64450
  Beta virt. eigenvalues --    0.67562   0.70415   0.71999   0.75958   0.78650
  Beta virt. eigenvalues --    0.79572   0.81802   0.86718   0.90815   0.92367
  Beta virt. eigenvalues --    0.99395   1.00230   1.01354   1.05009   1.09220
  Beta virt. eigenvalues --    1.11421   1.14282   1.21822   1.24742   1.29605
  Beta virt. eigenvalues --    1.30307   1.31049   1.32619   1.38761   1.42606
  Beta virt. eigenvalues --    1.43548   1.46960   1.49909   1.50831   1.53589
  Beta virt. eigenvalues --    1.55866   1.58563   1.60662   1.63472   1.66189
  Beta virt. eigenvalues --    1.68547   1.71027   1.75899   1.77976   1.80072
  Beta virt. eigenvalues --    1.84387   1.86859   1.89443   1.91530   1.97422
  Beta virt. eigenvalues --    2.01804   2.05305   2.07166   2.10594   2.12466
  Beta virt. eigenvalues --    2.14209   2.18228   2.22296   2.24241   2.25180
  Beta virt. eigenvalues --    2.29424   2.32127   2.36851   2.40498   2.43772
  Beta virt. eigenvalues --    2.46195   2.49449   2.56484   2.60212   2.64169
  Beta virt. eigenvalues --    2.65930   2.67205   2.73850   2.80706   2.85146
  Beta virt. eigenvalues --    2.87945   2.91587   2.93528   2.96509   2.98577
  Beta virt. eigenvalues --    3.01768   3.07197   3.11069   3.12665   3.15608
  Beta virt. eigenvalues --    3.19527   3.23360   3.26638   3.27196   3.34867
  Beta virt. eigenvalues --    3.37435   3.43133   3.45954   3.48712   3.55127
  Beta virt. eigenvalues --    3.57144   3.60906   3.64627   3.70472   3.73017
  Beta virt. eigenvalues --    3.73650   3.75344   3.78610   3.82826   3.85511
  Beta virt. eigenvalues --    3.89763   3.94069   4.03618   4.03972   4.07558
  Beta virt. eigenvalues --    4.10035   4.20513   4.22458   4.30072   4.31991
  Beta virt. eigenvalues --    4.38054   4.38489   4.42391   4.43739   4.48147
  Beta virt. eigenvalues --    4.51262   4.56257   4.61362   4.62950   4.66868
  Beta virt. eigenvalues --    4.70657   4.73191   4.75509   4.78362   4.79462
  Beta virt. eigenvalues --    4.83459   4.88372   4.91115   4.92193   4.99443
  Beta virt. eigenvalues --    5.03689   5.04141   5.07540   5.10559   5.10884
  Beta virt. eigenvalues --    5.14247   5.21229   5.23697   5.24970   5.25359
  Beta virt. eigenvalues --    5.37488   5.38922   5.44834   5.54855   5.57141
  Beta virt. eigenvalues --    5.69464   5.77464   5.78984   5.86000   6.00246
  Beta virt. eigenvalues --    6.35333   6.35656   6.36745   6.49285   6.53786
  Beta virt. eigenvalues --    6.58766   6.71224   6.85311   7.00887   7.12225
  Beta virt. eigenvalues --    7.30500   7.44242  22.87826  23.29381  31.69989
  Beta virt. eigenvalues --   32.07754  32.50038  32.87906  44.12566
          Condensed to atoms (all electrons):
               1          2          3          4          5          6
     1  N    6.533141   0.689253  -0.083852  -0.004058  -0.000570  -0.002429
     2  C    0.689253   4.815292   0.292351  -0.063566   0.003951  -0.087165
     3  N   -0.083852   0.292351   6.309653   0.413604  -0.000139   0.001180
     4  N   -0.004058  -0.063566   0.413604   6.691211  -0.000003   0.001147
     5  O   -0.000570   0.003951  -0.000139  -0.000003   8.101754   0.249351
     6  N   -0.002429  -0.087165   0.001180   0.001147   0.249351   6.125040
     7  C   -0.094981   0.286241  -0.044605   0.004476  -0.064877   0.560280
     8  H    0.343650  -0.057298  -0.010864   0.000785   0.000005   0.000381
     9  H   -0.002014  -0.134583   0.024110   0.005920   0.004384  -0.023617
               7          8          9
     1  N   -0.094981   0.343650  -0.002014
     2  C    0.286241  -0.057298  -0.134583
     3  N   -0.044605  -0.010864   0.024110
     4  N    0.004476   0.000785   0.005920
     5  O   -0.064877   0.000005   0.004384
     6  N    0.560280   0.000381  -0.023617
     7  C    5.067421   0.014453   0.429500
     8  H    0.014453   0.486591  -0.000265
     9  H    0.429500  -0.000265   0.569624
          Atomic-Atomic Spin Densities.
               1          2          3          4          5          6
     1  N   -0.000000   0.000000   0.000000  -0.000000   0.000000  -0.000000
     2  C    0.000000  -0.000000  -0.000000   0.000000   0.000000   0.000000
     3  N    0.000000  -0.000000  -0.000000   0.000000  -0.000000   0.000000
     4  N   -0.000000   0.000000   0.000000  -0.000000   0.000000  -0.000000
     5  O    0.000000   0.000000  -0.000000   0.000000   0.000000  -0.000000
     6  N   -0.000000   0.000000   0.000000  -0.000000  -0.000000   0.000000
     7  C    0.000000   0.000000  -0.000000  -0.000000   0.000000  -0.000000
     8  H    0.000000   0.000000  -0.000000  -0.000000   0.000000  -0.000000
     9  H    0.000000  -0.000000  -0.000000   0.000000   0.000000  -0.000000
               7          8          9
     1  N    0.000000   0.000000   0.000000
     2  C    0.000000   0.000000  -0.000000
     3  N   -0.000000  -0.000000  -0.000000
     4  N   -0.000000  -0.000000   0.000000
     5  O    0.000000   0.000000   0.000000
     6  N   -0.000000  -0.000000  -0.000000
     7  C    0.000000  -0.000000  -0.000000
     8  H   -0.000000   0.000000  -0.000000
     9  H   -0.000000  -0.000000   0.000000
 Mulliken charges and spin densities:
               1          2
     1  N   -0.378138  -0.000000
     2  C    0.255523  -0.000000
     3  N    0.098561  -0.000000
     4  N   -0.049515  -0.000000
     5  O   -0.293856   0.000000
     6  N    0.175832   0.000000
     7  C   -0.157910   0.000000
     8  H    0.222562   0.000000
     9  H    0.126942   0.000000
 Sum of Mulliken charges =  -0.00000  -0.00000
 Mulliken charges and spin densities with hydrogens summed into heavy atoms:
               1          2
     1  N   -0.155577  -0.000000
     2  C    0.255523  -0.000000
     3  N    0.098561  -0.000000
     4  N   -0.049515  -0.000000
     5  O   -0.293856   0.000000
     6  N    0.175832   0.000000
     7  C   -0.030967   0.000000
 Electronic spatial extent (au):  <R**2>=            831.9031
 Charge=              0.0000 electrons
 Dipole moment (field-independent basis, Debye):
    X=             -4.5196    Y=             -1.6867    Z=              0.6166  Tot=              4.8633
 Quadrupole moment (field-independent basis, Debye-Ang):
   XX=            -45.1139   YY=            -38.0633   ZZ=            -39.4041
   XY=             -3.1483   XZ=             -0.0007   YZ=              0.1711
 Traceless Quadrupole moment (field-independent basis, Debye-Ang):
   XX=             -4.2535   YY=              2.7972   ZZ=              1.4563
   XY=             -3.1483   XZ=             -0.0007   YZ=              0.1711
 Octapole moment (field-independent basis, Debye-Ang**2):
  XXX=            -22.0699  YYY=             -5.0174  ZZZ=             -0.5711  XYY=             -4.0673
  XXY=              8.4519  XXZ=              2.3534  XZZ=              1.1408  YZZ=             -1.0485
  YYZ=              1.0915  XYZ=              0.3515
 Hexadecapole moment (field-independent basis, Debye-Ang**3):
 XXXX=           -916.1804 YYYY=           -169.9942 ZZZZ=            -42.6334 XXXY=            -15.5357
 XXXZ=             -2.8975 YYYX=            -16.0739 YYYZ=              0.3767 ZZZX=             -0.9985
 ZZZY=              1.0323 XXYY=           -150.5479 XXZZ=           -141.7073 YYZZ=            -38.0236
 XXYZ=              2.1283 YYXZ=             -1.0831 ZZXY=             -0.4984
 N-N= 2.558985713996D+02 E-N=-1.380375012559D+03  KE= 3.699494492096D+02
                          Isotropic Fermi Contact Couplings
        Atom                 a.u.       MegaHertz       Gauss      10(-4) cm-1
     1  N(14)             -0.00000      -0.00000      -0.00000      -0.00000
     2  C(13)             -0.00000      -0.00000      -0.00000      -0.00000
     3  N(14)             -0.00000      -0.00000      -0.00000      -0.00000
     4  N(14)             -0.00000      -0.00000      -0.00000      -0.00000
     5  O(17)              0.00000      -0.00000      -0.00000      -0.00000
     6  N(14)              0.00000       0.00000       0.00000       0.00000
     7  C(13)              0.00000       0.00000       0.00000       0.00000
     8  H(1)               0.00000       0.00000       0.00000       0.00000
     9  H(1)               0.00000       0.00000       0.00000       0.00000
 --------------------------------------------------------
       Center         ----  Spin Dipole Couplings  ----
                      3XX-RR        3YY-RR        3ZZ-RR
 --------------------------------------------------------
     1   Atom        0.000000      0.000000     -0.000000
     2   Atom        0.000000     -0.000000     -0.000000
     3   Atom        0.000000      0.000000     -0.000000
     4   Atom        0.000000      0.000000     -0.000000
     5   Atom       -0.000000      0.000000     -0.000000
     6   Atom       -0.000000      0.000000     -0.000000
     7   Atom        0.000000     -0.000000      0.000000
     8   Atom       -0.000000      0.000000      0.000000
     9   Atom       -0.000000      0.000000     -0.000000
 --------------------------------------------------------
                        XY            XZ            YZ
 --------------------------------------------------------
     1   Atom       -0.000000     -0.000000     -0.000000
     2   Atom       -0.000000     -0.000000     -0.000000
     3   Atom       -0.000000      0.000000      0.000000
     4   Atom       -0.000000      0.000000      0.000000
     5   Atom       -0.000000      0.000000     -0.000000
     6   Atom       -0.000000      0.000000     -0.000000
     7   Atom        0.000000     -0.000000     -0.000000
     8   Atom        0.000000     -0.000000     -0.000000
     9   Atom        0.000000     -0.000000     -0.000000
 --------------------------------------------------------


 ---------------------------------------------------------------------------------
              Anisotropic Spin Dipole Couplings in Principal Axis System
 ---------------------------------------------------------------------------------

       Atom             a.u.   MegaHertz   Gauss  10(-4) cm-1        Axes

              Baa    -0.0000    -0.000    -0.000    -0.000  0.1223  0.0578  0.9908
     1 N(14)  Bbb     0.0000     0.000     0.000     0.000  0.4245  0.8993 -0.1048
              Bcc     0.0000     0.000     0.000     0.000  0.8971 -0.4334 -0.0854
 
              Baa    -0.0000    -0.000    -0.000    -0.000  0.4950  0.5494  0.6732
     2 C(13)  Bbb     0.0000     0.000     0.000     0.000 -0.0434  0.7894 -0.6123
              Bcc     0.0000     0.000     0.000     0.000  0.8678 -0.2739 -0.4146
 
              Baa    -0.0000    -0.000    -0.000    -0.000 -0.0181 -0.0759  0.9969
     3 N(14)  Bbb     0.0000     0.000     0.000     0.000  0.9531  0.2998  0.0402
              Bcc     0.0000     0.000     0.000     0.000 -0.3020  0.9510  0.0669
 
              Baa    -0.0000    -0.000    -0.000    -0.000 -0.1611 -0.1476  0.9758
     4 N(14)  Bbb     0.0000     0.000     0.000     0.000  0.0784  0.9837  0.1617
              Bcc     0.0000     0.000     0.000     0.000  0.9838 -0.1025  0.1469
 
              Baa    -0.0000     0.000     0.000     0.000 -0.1190  0.2309  0.9657
     5 O(17)  Bbb    -0.0000     0.000     0.000     0.000  0.9882  0.1218  0.0927
              Bcc     0.0000    -0.000    -0.000    -0.000 -0.0963  0.9653 -0.2426
 
              Baa    -0.0000    -0.000    -0.000    -0.000  0.1604  0.3995  0.9026
     6 N(14)  Bbb    -0.0000    -0.000    -0.000    -0.000  0.9797  0.0469 -0.1948
              Bcc     0.0000     0.000     0.000     0.000 -0.1202  0.9155 -0.3839
 
              Baa    -0.0000    -0.000    -0.000    -0.000 -0.5126  0.8203 -0.2537
     7 C(13)  Bbb    -0.0000    -0.000    -0.000    -0.000  0.6344  0.5609  0.5319
              Bcc     0.0000     0.000     0.000     0.000 -0.5786 -0.1117  0.8079
 
              Baa    -0.0000    -0.000    -0.000    -0.000  0.8735 -0.4832 -0.0586
     8 H(1)   Bbb     0.0000     0.000     0.000     0.000  0.1378  0.1300  0.9819
              Bcc     0.0000     0.000     0.000     0.000  0.4668  0.8658 -0.1801
 
              Baa    -0.0000    -0.000    -0.000    -0.000  0.8415 -0.3413  0.4189
     9 H(1)   Bbb    -0.0000    -0.000    -0.000    -0.000 -0.3243  0.3011  0.8968
              Bcc     0.0000     0.000     0.000     0.000  0.4322  0.8904 -0.1427
 

 ---------------------------------------------------------------------------------

 1\1\GINC-NODE305\SP\UwB97XD\def2TZVP\C2H2N4O1\MHARRIS\22-Jun-2021\0\\#
  UwB97XD/Def2TZVP\\something title\\0,1\N,0,-0.506747,-0.160887,-1.287
 87\C,0,-0.444832,-0.864796,-0.209747\N,0,-1.535846,-1.095411,0.535475\
 N,0,-2.627544,-1.394901,0.714546\O,0,3.068388,-1.402174,-0.289783\N,0,
 1.857756,-1.361289,-0.286924\C,0,0.820306,-1.223128,0.424518\H,0,-1.41
 8173,0.220308,-1.5397\H,0,0.762766,-1.529685,1.461804\\Version=ES64L-G
 16RevA.03\State=1-A\HF=-371.4018561\S2=0.\S2-1=0.\S2A=0.\RMSD=7.359e-0
 9\Dipole=-1.6909694,-0.0361493,0.8946042\Quadrupole=-2.7883626,1.63457
 89,1.1537837,-1.014278,2.4609834,-0.519278\PG=C01 [X(C2H2N4O1)]\\@


 You can't act like a skunk without someone's getting wind of it.
 -- Lorene Workman
 Job cpu time:       0 days  0 hours 22 minutes 41.1 seconds.
 Elapsed time:       0 days  0 hours  5 minutes 41.2 seconds.
 File lengths (MBytes):  RWF=     54 Int=      0 D2E=      0 Chk=      5 Scr=      1
 Normal termination of Gaussian 16 at Tue Jun 22 15:45:23 2021.
