      -----------------------------------------------------------      
     |                   =====================                   |     
     |                           x T B                           |     
     |                   =====================                   |     
     |                         S. Grimme                         |     
     |          Mulliken Center for Theoretical Chemistry        |     
     |                    University of Bonn                     |     
     |                 Version 6.1.4 (SAW190525)                 |     
      -----------------------------------------------------------      

   This program is distributed in the hope that it will be useful,
   but WITHOUT ANY WARRANTY; without even the implied warranty of
   MERCHANTABILITY or FITNESS FOR A PARTICULAR PURPOSE.
   
   FOR NON-COMMERCIAL, ACADEMIA USE ONLY.
   
   Cite this work as:
   S. Grimme, C. Bannwarth, P. Shushkov, J. Comput. Theory Chem., 2017,
   13, 1989-2009. DOI: 10.1021/acs.jctc.7b00118
   C. Bannwarth, S. Ehlert and S. Grimme., J. Comput. Theory Chem., 2019,
   just accepted. DOI: 10.1021/acs.jctc.8b01176
   
   for sTDA-xTB:
   S. Grimme and C. Bannwarth, J. Chem. Phys., 2016, 145, 054103.
   DOI: 10.1063/1.4959605
   
   in the mass-spec context:
   V. Asgeirsson, C. Bauer and S. Grimme, Chem. Sci., 2017, 8, 4879.
   DOI: 10.1039/c7sc00601b
   
   for metadynamics refer to:
   S. Grimme, J. Chem. Theory Comput. Article ASAP, 2019,
   DOI: 10.1021/acs.jctc.9b00143
   
   with help from (in alphabetical order)
   C. Bannwarth, F. Bohle, G. Brandenburg, E. Caldeweyher, M. Checinski,
   S. Dohm, S. Ehlert, S. Ehrlich, F. März, H. Neugebauer, J. Pisarek,
   P. Pracht, P. Shushkov, and S. Spicher.
   
 * started run on 2021/03/14 at 23:57:08.718     

           -------------------------------------------------
          |                Calculation Setup                |
           -------------------------------------------------

          program call               : /opt/xtb/6.1/xtb-190527/bin/xtb 0.8_md.xyz --md --input metadyn.inp --gfn 2
          hostname                   : mnode007
          coordinate file            : 0.8_md.xyz
          omp threads                :                     1
          number of atoms            :                    12
          number of electrons        :                    36
          charge                     :                     0
          spin                       :                   0.0
          first test random number   :      0.29917634251993

spherical wallpotenial with radius    3.6488561 Å

########################################################################
# WARNING! Please study the warnings concerning your input carefully
#  - XTBPATH is not set, using XTBHOME instead
########################################################################

           ------------------------------------------------- 
          |                 G F N 2 - x T B                 |
          | Geometry, Frequencies, Noncovalent interactions |
          |            JCTC 2018 parametrisation            |
           ------------------------------------------------- 
             k(s)              :                1.8500
             k(p)              :                2.2300
             k(d)              :                2.2300
             k(f)              :                2.0000
             kEN (H0ij)        :               -2.0000
             D4 a1             :                0.5200
             D4 a2             :                5.0000
             D4 s6             :                1.0000
             D4 s8             :                2.7000
             D4 s9             :                5.0000
             alphaj            :                2.0000

  Z AO/shell   Hii/eV     exponent
  1     Wed Apr 25 08:07:45 CEST 2018   EN: 2.200 GM2: 0.406  GM3: 0.0800  RAES: 1.40
     1s    -10.707211    1.230000
  6     Wed Apr 25 08:07:45 CEST 2018   EN: 2.550 GM2: 0.538  GM3: 0.1500  RAES: 3.00
     2s    -13.970922    2.096432
     2p    -10.063292    1.800000
  8     Wed Apr 25 08:07:45 CEST 2018   EN: 3.440 GM2: 0.452  GM3:-0.0517  RAES: 1.80
     2s    -20.229985    2.439742
     2p    -15.503117    2.137023


            Z     q(EN)     CN     RAES       Cart. coordinates
     1  C   4.0    0.08    2.99    3.02     1.70115     3.61696     0.19176
     2  O   6.0   -0.34    1.00    1.80     2.76313     4.75510     1.91162
     3  C   4.0   -0.10    3.98    3.58    -0.18770     1.53135     0.59324
     4  H   1.0    0.14    0.99    1.43     1.97669     4.44918    -1.70038
     5  C   4.0   -0.05    3.97    3.58     0.30679    -0.98032    -0.69709
     6  H   1.0    0.11    0.99    1.43    -2.08854     1.91092    -0.12730
     7  H   1.0    0.16    0.99    1.43    -0.44973     0.90749     2.54819
     8  O   6.0   -0.18    1.91    1.82     2.23118    -2.52459     0.39285
     9  H   1.0    0.13    0.99    1.43     1.35130    -0.57309    -2.43866
    10  H   1.0    0.12    0.99    1.43    -1.37234    -2.17656    -0.88601
    11  O   6.0   -0.33    1.92    1.82     1.34757    -3.59150     2.76784
    12  H   1.0    0.26    0.99    1.43     0.03035    -4.78196     2.27725

           ------------------------------------------------- 
          |        Self-Consistent Charge Iterations        |
           ------------------------------------------------- 

          ...................................................
          :                      SETUP                      :
          :.................................................:
          :  # basis functions                  30          :
          :  # atomic orbitals                  30          :
          :  # shells                           18          :
          :  # electrons                        36          :
          :  max. iterations                   250          :
          :  Hamiltonian                  GFN2-xTB          :
          :  restarted?                      false          :
          :  GBSA solvation                  false          :
          :  PC potential                    false          :
          :  electronic temp.         6000.0000000     K    :
          :  accuracy                    1.0000000          :
          :  -> integral cutoff          0.2500000E+02      :
          :  -> integral neglect         0.1000000E-07      :
          :  -> SCF convergence          0.1000000E-05 Eh   :
          :  -> wf. convergence          0.1000000E-03 e    :
          :  Broyden damping             0.4000000          :
          ...................................................

 iter      E             dE          RMSdq      gap      omega  full diag
   1    -21.6702265 -0.216702E+02  0.496E+00    4.29       0.0  T
   2    -21.7023194 -0.320929E-01  0.253E+00    3.37       1.0  T
   3    -21.7027552 -0.435805E-03  0.173E+00    3.94       1.0  T
   4    -21.7113735 -0.861828E-02  0.178E-01    3.58       1.0  T
   5    -21.7115502 -0.176679E-03  0.867E-02    3.62       1.0  T
   6    -21.7115572 -0.707884E-05  0.300E-02    3.62       1.0  T
   7    -21.7115585 -0.122356E-05  0.963E-03    3.62       3.0  T
   8    -21.7115588 -0.327393E-06  0.436E-03    3.62       6.6  T
   9    -21.7115588 -0.383045E-07  0.168E-03    3.62      17.2  T
  10    -21.7115588 -0.146807E-07  0.903E-04    3.62      32.0  T
  11    -21.7115588 -0.512560E-08  0.380E-04    3.62      75.9  T

   *** convergence criteria satisfied after 11 iterations ***

         #    Occupation            Energy/Eh            Energy/eV
      -------------------------------------------------------------
         1        2.0000           -0.7361143             -20.0307
       ...           ...                  ...                  ...
        12        1.9999           -0.5382571             -14.6467
        13        1.9997           -0.5152401             -14.0204
        14        1.9991           -0.4930477             -13.4165
        15        1.9988           -0.4872801             -13.2596
        16        1.9975           -0.4722624             -12.8509
        17        1.9894           -0.4449769             -12.1084
        18        1.9486           -0.4146387             -11.2829 (HOMO)
        19        0.0665           -0.2815404              -7.6611 (LUMO)
        20        0.0004           -0.1850042              -5.0342
        21                         -0.0024067              -0.0655
        22                          0.0375441               1.0216
        23                          0.0666165               1.8127
       ...                                ...                  ...
        30                          0.5137196              13.9790
      -------------------------------------------------------------
                  HL-Gap            0.1330983 Eh            3.6218 eV
             Fermi-level           -0.3455576 Eh           -9.4031 eV

 SCC (total)                   0 d,  0 h,  0 min,  0.877 sec
 SCC setup                      ...        0 min,  0.001 sec (  0.098%)
 Dispersion                     ...        0 min,  0.000 sec (  0.040%)
 integral evaluation            ...        0 min,  0.009 sec (  1.006%)
 zeroth order Hamiltonian       ...        0 min,  0.354 sec ( 40.421%)
 iterations                     ...        0 min,  0.019 sec (  2.122%)
 molecular gradient             ...        0 min,  0.012 sec (  1.354%)
 printout                       ...        0 min,  0.482 sec ( 54.951%)

         :::::::::::::::::::::::::::::::::::::::::::::::::::::
         ::                     SUMMARY                     ::
         :::::::::::::::::::::::::::::::::::::::::::::::::::::
         :: total energy              -21.548143286976 Eh   ::
         :: gradient norm               0.093719956061 Eh/α ::
         :: HOMO-LUMO gap               3.621789070107 eV   ::
         ::.................................................::
         :: SCC energy                -21.711558840014 Eh   ::
         :: -> isotropic ES             0.050736561677 Eh   ::
         :: -> anisotropic ES          -0.002909442484 Eh   ::
         :: -> anisotropic XC          -0.002012016729 Eh   ::
         :: -> dispersion              -0.005692119884 Eh   ::
         :: repulsion energy            0.163409202746 Eh   ::
         :: add. restraining            0.000000418606 Eh   ::
         :::::::::::::::::::::::::::::::::::::::::::::::::::::

           -------------------------------------------------
          |                Property Printout                |
           -------------------------------------------------

    * Orbital Energies and Occupations

         #    Occupation            Energy/Eh            Energy/eV
      -------------------------------------------------------------
         1        2.0000           -0.7361143             -20.0307
       ...           ...                  ...                  ...
         6        2.0000           -0.6193096             -16.8523
         7        2.0000           -0.5976488             -16.2629
         8        2.0000           -0.5938216             -16.1587
         9        2.0000           -0.5836884             -15.8830
        10        2.0000           -0.5578737             -15.1805
        11        2.0000           -0.5498279             -14.9616
        12        1.9999           -0.5382571             -14.6467
        13        1.9997           -0.5152401             -14.0204
        14        1.9991           -0.4930477             -13.4165
        15        1.9988           -0.4872801             -13.2596
        16        1.9975           -0.4722624             -12.8509
        17        1.9894           -0.4449769             -12.1084
        18        1.9486           -0.4146387             -11.2829 (HOMO)
        19        0.0665           -0.2815404              -7.6611 (LUMO)
        20        0.0004           -0.1850042              -5.0342
        21                         -0.0024067              -0.0655
        22                          0.0375441               1.0216
        23                          0.0666165               1.8127
        24                          0.1208142               3.2875
        25                          0.1359414               3.6992
        26                          0.1485448               4.0421
        27                          0.1874005               5.0994
        28                          0.2193265               5.9682
        29                          0.2923158               7.9543
        30                          0.5137196              13.9790
      -------------------------------------------------------------
                  HL-Gap            0.1330983 Eh            3.6218 eV
             Fermi-level           -0.3455576 Eh           -9.4031 eV

   #   Z        covCN         q      C6AA      α(0)
   1   6 C      2.756     0.204    23.659     7.965
   2   8 O      0.856    -0.315    20.059     6.005
   3   6 C      3.801    -0.089    22.206     6.709
   4   1 H      0.923     0.041     2.440     2.443
   5   6 C      3.674     0.076    19.543     6.335
   6   1 H      0.924     0.074     2.046     2.237
   7   1 H      0.924     0.097     1.816     2.108
   8   8 O      1.753    -0.211    17.497     5.648
   9   1 H      0.924     0.081     1.970     2.195
  10   1 H      0.924     0.048     2.340     2.392
  11   8 O      1.709    -0.313    19.227     5.920
  12   1 H      0.804     0.309     0.695     1.309

 Mol. C6AA /au·bohr⁶  :       1227.557494
 Mol. C8AA /au·bohr⁸  :      26109.840012
 Mol. α(0) /au        :         51.266256


Wiberg/Mayer (AO) data.
largest (>0.10) Wiberg bond orders for each atom
          total WBO             WBO to atom ...
     1  C   3.848        O    2 1.877    C    3 1.008    H    4 0.932
     2  O   2.008        C    1 1.877
     3  C   3.971        C    1 1.008    C    5 0.980    H    7 0.959    H    6 0.942
     4  H   0.984        C    1 0.932
     5  C   3.938        O    8 0.987    C    3 0.980    H   10 0.966    H    9 0.948
     6  H   0.990        C    3 0.942
     7  H   0.989        C    3 0.959
     8  O   2.019        C    5 0.987    O   11 0.970
     9  H   0.992        C    5 0.948
    10  H   0.995        C    5 0.966
    11  O   1.921        O    8 0.970    H   12 0.895
    12  H   0.904        O   11 0.895

molecular dipole:
                 x           y           z       tot (Debye)
 q only:       -1.441      -0.533      -0.988
   full:       -1.769      -0.737      -1.261       5.831
molecular quadrupole (traceless):
                xx          xy          yy          xz          yz          zz
 q only:       -1.588      -0.172       0.196      -5.059      -4.035       1.393
  q+dip:       -1.532       1.272       1.003      -6.868      -5.304       0.529
   full:       -1.510       0.272       0.955      -6.901      -5.365       0.555


           -------------------------------------------------
          | TOTAL ENERGY              -21.548143286976 Eh   |
          | GRADIENT NORM               0.093719956061 Eh/α |
          | HOMO-LUMO GAP               3.621789070107 eV   |
           -------------------------------------------------
           ------------------------------------------------- 
          |                  Meta Dynamics                  |
           ------------------------------------------------- 
 trajectories on xtb.trj or xtb.trj.<n>
 
 MD time /ps        :   50.00
 dt /fs             :    0.40
 SCC accuracy       :    2.00
 temperature /K     :  300.00
 max steps          :125000
 block length (av.) :  5000
 dumpstep(trj) /fs  :   10.00    25
 dumpstep(coords)/fs: 1000.00  2500
 H atoms mass (amu) :     2
 # deg. of freedom  :    36
 SHAKE off
 Berendsen THERMOSTAT on
kpush  :    0.050
alpha  :    0.300
update : 100
         time (ps)    <Epot>      Ekin   <T>   T     Etot
      0    0.00      0.00000   0.0428    0.    0.   -21.45539
est. speed in wall clock h for 100 ps :  0.98
    200    0.08    -21.39896   0.0332  571.  583.   -21.46465
    400    0.16    -21.45225   0.0630  635. 1105.   -21.46947
    600    0.24    -21.47422   0.0452  703.  792.   -21.47319
    800    0.32    -21.48446   0.0455  705.  798.   -21.47627
   1000    0.40    -21.49315   0.0515  737.  903.   -21.48103
   1200    0.48    -21.49878   0.0285  739.  501.   -21.48525
   1400    0.56    -21.50257   0.0407  728.  714.   -21.49074
   1600    0.64    -21.50609   0.0437  724.  767.   -21.49272
   1800    0.72    -21.50912   0.0428  720.  751.   -21.49594
   2000    0.80    -21.51138   0.0381  707.  668.   -21.49899
   2200    0.88    -21.51321   0.0424  693.  744.   -21.50201
   2400    0.96    -21.51492   0.0317  681.  557.   -21.50361
   2600    1.04    -21.51592   0.0392  677.  689.   -21.46469
   2800    1.12    -21.51495   0.0310  677.  543.   -21.46502
   3000    1.20    -21.51432   0.0400  677.  701.   -21.46858
   3200    1.28    -21.51388   0.0358  675.  628.   -21.47328
   3400    1.36    -21.51371   0.0301  674.  527.   -21.47541
   3600    1.44    -21.51374   0.0265  673.  465.   -21.47840
   3800    1.52    -21.51360   0.0405  667.  710.   -21.48030
   4000    1.60    -21.51374   0.0344  664.  604.   -21.48243
   4200    1.68    -21.51385   0.0262  659.  459.   -21.48490
   4400    1.76    -21.51390   0.0348  651.  611.   -21.48708
   4600    1.84    -21.51437   0.0397  650.  697.   -21.49059
   4800    1.92    -21.51472   0.0355  646.  623.   -21.49142
block <Epot> / <T> :     -21.51925  639.     drift:  0.99D+02   Tbath : 300.
   5000    2.00    -21.51494   0.0301  639.  529.   -21.49426
   5200    2.08    -21.51407   0.0382  636.  670.   -21.45013
   5400    2.16    -21.51345   0.0295  642.  518.   -21.45439
   5600    2.24    -21.51283   0.0624  644. 1095.   -21.45786
   5800    2.32    -21.51254   0.0271  648.  475.   -21.46200
   6000    2.40    -21.51193   0.0295  644.  518.   -21.46438
   6200    2.48    -21.51139   0.0350  640.  614.   -21.46562
   6400    2.56    -21.51122   0.0319  640.  560.   -21.47040
   6600    2.64    -21.51106   0.0306  639.  537.   -21.47327
   6800    2.72    -21.51090   0.0306  637.  537.   -21.47576
   7000    2.80    -21.51096   0.0357  637.  626.   -21.47800
   7200    2.88    -21.51105   0.0379  636.  666.   -21.48065
   7400    2.96    -21.51123   0.0359  635.  629.   -21.48287
   7600    3.04    -21.51104   0.0240  633.  422.   -21.44349
   7800    3.12    -21.51031   0.0369  635.  648.   -21.44380
   8000    3.20    -21.50955   0.0325  634.  570.   -21.44685
   8200    3.28    -21.50905   0.0379  636.  665.   -21.45086
   8400    3.36    -21.50893   0.0553  642.  969.   -21.45570
   8600    3.44    -21.50879   0.0479  645.  841.   -21.46034
   8800    3.52    -21.50869   0.0492  648.  863.   -21.46407
   9000    3.60    -21.50854   0.0457  647.  802.   -21.46697
   9200    3.68    -21.50846   0.0422  647.  740.   -21.47085
   9400    3.76    -21.50848   0.0350  647.  614.   -21.47243
   9600    3.84    -21.50850   0.0407  646.  714.   -21.47597
   9800    3.92    -21.50845   0.0248  643.  435.   -21.47897
  10000    4.00    -21.50848   0.0342  641.  601.   -21.48095
block <Epot> / <T> :     -21.50201  643.     drift:  0.99D+02   Tbath : 300.
  10200    4.08    -21.50805   0.0284  642.  498.   -21.43679
  10400    4.16    -21.50742   0.0384  642.  674.   -21.44217
  10600    4.24    -21.50678   0.0179  640.  315.   -21.44361
  10800    4.32    -21.50619   0.0345  638.  606.   -21.44487
  11000    4.40    -21.50565   0.0297  636.  521.   -21.44612
  11200    4.48    -21.50521   0.0256  635.  449.   -21.45011
  11400    4.56    -21.50484   0.0434  634.  762.   -21.45246
  11600    4.64    -21.50445   0.0279  632.  490.   -21.45408
  11800    4.72    -21.50411   0.0317  630.  556.   -21.45667
  12000    4.80    -21.50387   0.0305  629.  534.   -21.45900
  12200    4.88    -21.50365   0.0305  627.  536.   -21.46059
  12400    4.96    -21.50346   0.0262  625.  459.   -21.46253
  12600    5.04    -21.50311   0.0359  624.  630.   -21.42250
  12800    5.12    -21.50239   0.0373  624.  655.   -21.42196
  13000    5.20    -21.50201   0.0662  629. 1161.   -21.42782
  13200    5.28    -21.50169   0.0452  633.  794.   -21.43458
  13400    5.36    -21.50121   0.0262  633.  459.   -21.43683
  13600    5.44    -21.50071   0.0323  632.  567.   -21.43732
  13800    5.52    -21.50024   0.0343  630.  601.   -21.43811
  14000    5.60    -21.49980   0.0268  628.  470.   -21.44137
  14200    5.68    -21.49954   0.0393  629.  690.   -21.44442
  14400    5.76    -21.49927   0.0375  628.  657.   -21.44719
  14600    5.84    -21.49910   0.0405  629.  711.   -21.45081
  14800    5.92    -21.49887   0.0272  627.  478.   -21.45279
  15000    6.00    -21.49863   0.0318  625.  557.   -21.45458
block <Epot> / <T> :     -21.47892  594.     drift:  0.99D+02   Tbath : 300.
  15200    6.08    -21.49802   0.0317  624.  555.   -21.41009
  15400    6.16    -21.49748   0.0415  626.  727.   -21.41469
  15600    6.24    -21.49703   0.0474  628.  831.   -21.41843
  15800    6.32    -21.49648   0.0262  628.  460.   -21.42144
  16000    6.40    -21.49597   0.0346  627.  607.   -21.42421
  16200    6.48    -21.49554   0.0313  627.  550.   -21.42672
  16400    6.56    -21.49510   0.0425  626.  745.   -21.43043
  16600    6.64    -21.49474   0.0333  626.  584.   -21.43309
  16800    6.72    -21.49437   0.0350  624.  614.   -21.43504
  17000    6.80    -21.49404   0.0346  623.  607.   -21.43706
  17200    6.88    -21.49373   0.0373  622.  654.   -21.43884
  17400    6.96    -21.49340   0.0212  620.  372.   -21.44033
  17600    7.04    -21.49298   0.0326  618.  573.   -21.40105
  17800    7.12    -21.49232   0.0321  618.  563.   -21.39825
  18000    7.20    -21.49168   0.0344  618.  604.   -21.40163
  18200    7.28    -21.49106   0.0357  618.  626.   -21.40474
  18400    7.36    -21.49044   0.0283  616.  496.   -21.40649
  18600    7.44    -21.48985   0.0287  615.  503.   -21.40741
  18800    7.52    -21.48928   0.0242  614.  425.   -21.40968
  19000    7.60    -21.48878   0.0367  613.  644.   -21.41169
  19200    7.68    -21.48846   0.0457  615.  801.   -21.41547
  19400    7.76    -21.48810   0.0348  615.  611.   -21.41879
  19600    7.84    -21.48776   0.0324  615.  569.   -21.42172
  19800    7.92    -21.48736   0.0306  613.  536.   -21.42344
  20000    8.00    -21.48705   0.0301  612.  527.   -21.42517
block <Epot> / <T> :     -21.45229  573.     drift:  0.22D-01   Tbath : 300.
  20200    8.08    -21.48638   0.0346  611.  608.   -21.38077
  20400    8.16    -21.48582   0.0608  613. 1066.   -21.38550
  20600    8.24    -21.48533   0.0364  615.  638.   -21.38812
  20800    8.32    -21.48478   0.0316  616.  555.   -21.39351
  21000    8.40    -21.48426   0.0411  616.  721.   -21.39659
  21200    8.48    -21.48383   0.0390  617.  684.   -21.39916
  21400    8.56    -21.48344   0.0472  618.  828.   -21.40508
  21600    8.64    -21.48312   0.0481  619.  844.   -21.40735
  21800    8.72    -21.48276   0.0324  619.  568.   -21.41065
  22000    8.80    -21.48241   0.0331  618.  581.   -21.41309
  22200    8.88    -21.48212   0.0353  618.  620.   -21.41634
  22400    8.96    -21.48181   0.0360  618.  631.   -21.41923
  22600    9.04    -21.48140   0.0312  617.  547.   -21.37732
  22800    9.12    -21.48081   0.0586  617. 1027.   -21.37622
  23000    9.20    -21.48033   0.0556  619.  975.   -21.38155
  23200    9.28    -21.47986   0.0572  620. 1004.   -21.38662
  23400    9.36    -21.47951   0.0397  622.  697.   -21.39122
  23600    9.44    -21.47904   0.0365  622.  640.   -21.39346
  23800    9.52    -21.47868   0.0388  623.  680.   -21.39661
  24000    9.60    -21.47832   0.0380  623.  667.   -21.39945
  24200    9.68    -21.47795   0.0336  622.  590.   -21.40257
  24400    9.76    -21.47762   0.0242  622.  425.   -21.40509
  24600    9.84    -21.47728   0.0214  621.  375.   -21.40823
  24800    9.92    -21.47698   0.0290  621.  508.   -21.41014
  25000   10.00    -21.47669   0.0237  620.  416.   -21.41279
block <Epot> / <T> :     -21.43525  651.     drift:  0.23D-01   Tbath : 300.
  25200   10.08    -21.47613   0.0318  619.  557.   -21.36641
  25400   10.16    -21.47553   0.0352  619.  617.   -21.36772
  25600   10.24    -21.47505   0.0506  620.  888.   -21.37178
  25800   10.32    -21.47459   0.0289  620.  508.   -21.37721
  26000   10.40    -21.47412   0.0407  621.  715.   -21.37892
  26200   10.48    -21.47364   0.0225  620.  395.   -21.38141
  26400   10.56    -21.47315   0.0331  619.  580.   -21.38407
  26600   10.64    -21.47273   0.0294  618.  516.   -21.38672
  26800   10.72    -21.47224   0.0233  616.  409.   -21.38672
  27000   10.80    -21.47177   0.0255  615.  448.   -21.38677
  27200   10.88    -21.47134   0.0238  613.  417.   -21.38855
  27400   10.96    -21.47092   0.0282  612.  494.   -21.38920
  27600   11.04    -21.47045   0.0272  611.  477.   -21.34923
  27800   11.12    -21.46985   0.0456  612.  801.   -21.34841
  28000   11.20    -21.46929   0.0377  613.  661.   -21.35220
  28200   11.28    -21.46872   0.0298  613.  523.   -21.35466
  28400   11.36    -21.46817   0.0351  613.  616.   -21.35801
  28600   11.44    -21.46763   0.0396  612.  694.   -21.36038
  28800   11.52    -21.46714   0.0407  612.  714.   -21.36311
  29000   11.60    -21.46671   0.0281  613.  493.   -21.36704
  29200   11.68    -21.46628   0.0334  613.  586.   -21.36951
  29400   11.76    -21.46584   0.0445  613.  780.   -21.37191
  29600   11.84    -21.46547   0.0312  613.  547.   -21.37416
  29800   11.92    -21.46509   0.0283  613.  496.   -21.37679
  30000   12.00    -21.46474   0.0282  613.  496.   -21.38047
block <Epot> / <T> :     -21.40496  575.     drift:  0.24D-01   Tbath : 300.
  30200   12.08    -21.46418   0.0400  612.  702.   -21.33756
  30400   12.16    -21.46360   0.0464  612.  813.   -21.33919
  30600   12.24    -21.46312   0.0492  614.  863.   -21.34538
  30800   12.32    -21.46265   0.0563  615.  988.   -21.34886
  31000   12.40    -21.46221   0.0322  616.  564.   -21.35310
  31200   12.48    -21.46173   0.0283  615.  496.   -21.35609
  31400   12.56    -21.46124   0.0354  615.  622.   -21.35878
  31600   12.64    -21.46081   0.0408  614.  715.   -21.36088
  31800   12.72    -21.46041   0.0281  614.  494.   -21.36303
  32000   12.80    -21.45998   0.0340  614.  596.   -21.36485
  32200   12.88    -21.45960   0.0210  613.  368.   -21.36756
  32400   12.96    -21.45922   0.0284  613.  499.   -21.36864
  32600   13.04    -21.45878   0.0323  612.  567.   -21.33015
  32800   13.12    -21.45820   0.0409  612.  718.   -21.32974
  33000   13.20    -21.45773   0.0487  613.  854.   -21.33392
  33200   13.28    -21.45728   0.0407  615.  714.   -21.33711
  33400   13.36    -21.45682   0.0435  615.  762.   -21.34308
  33600   13.44    -21.45637   0.0536  615.  939.   -21.34633
  33800   13.52    -21.45598   0.0293  616.  514.   -21.34881
  34000   13.60    -21.45558   0.0446  616.  783.   -21.35295
  34200   13.68    -21.45520   0.0347  616.  609.   -21.35639
  34400   13.76    -21.45484   0.0270  616.  474.   -21.35803
  34600   13.84    -21.45448   0.0245  616.  430.   -21.36216
  34800   13.92    -21.45414   0.0326  616.  573.   -21.36432
  35000   14.00    -21.45379   0.0223  615.  392.   -21.36413
block <Epot> / <T> :     -21.38805  631.     drift:  0.22D-01   Tbath : 300.
  35200   14.08    -21.45328   0.0326  615.  572.   -21.32031
  35400   14.16    -21.45273   0.0486  615.  852.   -21.32261
  35600   14.24    -21.45221   0.0226  614.  397.   -21.32733
  35800   14.32    -21.45168   0.0309  614.  542.   -21.32806
  36000   14.40    -21.45119   0.0231  614.  405.   -21.33092
  36200   14.48    -21.45071   0.0367  614.  645.   -21.33369
  36400   14.56    -21.45023   0.0297  613.  521.   -21.33618
  36600   14.64    -21.44979   0.0354  613.  621.   -21.33782
  36800   14.72    -21.44932   0.0224  612.  394.   -21.33924
  37000   14.80    -21.44887   0.0192  611.  337.   -21.34029
  37200   14.88    -21.44845   0.0231  610.  405.   -21.34269
  37400   14.96    -21.44800   0.0167  609.  292.   -21.34301
  37600   15.04    -21.44750   0.0305  608.  535.   -21.30265
  37800   15.12    -21.44685   0.0388  607.  681.   -21.29700
  38000   15.20    -21.44626   0.0378  607.  663.   -21.29930
  38200   15.28    -21.44571   0.0590  608. 1035.   -21.30416
  38400   15.36    -21.44527   0.0575  610. 1009.   -21.30936
  38600   15.44    -21.44484   0.0483  611.  847.   -21.31559
  38800   15.52    -21.44440   0.0391  612.  686.   -21.31916
  39000   15.60    -21.44395   0.0416  612.  730.   -21.32263
  39200   15.68    -21.44357   0.0350  613.  614.   -21.32578
  39400   15.76    -21.44314   0.0337  612.  592.   -21.32812
  39600   15.84    -21.44273   0.0315  612.  553.   -21.33116
  39800   15.92    -21.44236   0.0312  612.  548.   -21.33557
  40000   16.00    -21.44197   0.0254  612.  446.   -21.33670
block <Epot> / <T> :     -21.35920  586.     drift:  0.25D-01   Tbath : 300.
  40200   16.08    -21.44145   0.0464  611.  815.   -21.29166
  40400   16.16    -21.44096   0.0479  613.  840.   -21.29693
  40600   16.24    -21.44048   0.0526  613.  923.   -21.30082
  40800   16.32    -21.44001   0.0389  614.  682.   -21.30517
  41000   16.40    -21.43957   0.0413  615.  724.   -21.30953
  41200   16.48    -21.43922   0.0355  616.  623.   -21.31588
  41400   16.56    -21.43882   0.0398  617.  697.   -21.31767
  41600   16.64    -21.43845   0.0348  617.  611.   -21.32423
  41800   16.72    -21.43810   0.0446  618.  782.   -21.32652
  42000   16.80    -21.43774   0.0264  618.  462.   -21.32819
  42200   16.88    -21.43738   0.0347  617.  609.   -21.33162
  42400   16.96    -21.43703   0.0418  617.  734.   -21.33394
  42600   17.04    -21.43666   0.0294  617.  516.   -21.29727
  42800   17.12    -21.43613   0.0334  616.  585.   -21.29068
  43000   17.20    -21.43564   0.0383  617.  672.   -21.29376
  43200   17.28    -21.43513   0.0245  616.  431.   -21.29670
  43400   17.36    -21.43465   0.0348  616.  611.   -21.29866
  43600   17.44    -21.43418   0.0372  616.  653.   -21.30267
  43800   17.52    -21.43379   0.0513  617.  900.   -21.30579
  44000   17.60    -21.43340   0.0310  617.  545.   -21.30906
  44200   17.68    -21.43302   0.0371  617.  651.   -21.31258
  44400   17.76    -21.43266   0.0289  617.  506.   -21.31730
  44600   17.84    -21.43230   0.0401  617.  704.   -21.31882
  44800   17.92    -21.43194   0.0228  617.  400.   -21.32367
  45000   18.00    -21.43161   0.0358  617.  627.   -21.32375
block <Epot> / <T> :     -21.34872  660.     drift:  0.20D-01   Tbath : 300.
  45200   18.08    -21.43114   0.0346  617.  608.   -21.27955
  45400   18.16    -21.43062   0.0310  616.  544.   -21.28194
  45600   18.24    -21.43011   0.0308  616.  541.   -21.28418
  45800   18.32    -21.42960   0.0300  616.  527.   -21.28699
  46000   18.40    -21.42912   0.0247  615.  434.   -21.28850
  46200   18.48    -21.42864   0.0367  615.  644.   -21.29020
  46400   18.56    -21.42819   0.0405  615.  711.   -21.29337
  46600   18.64    -21.42775   0.0322  614.  565.   -21.29574
  46800   18.72    -21.42732   0.0361  614.  633.   -21.29800
  47000   18.80    -21.42692   0.0375  614.  657.   -21.30030
  47200   18.88    -21.42652   0.0309  614.  543.   -21.30310
  47400   18.96    -21.42613   0.0305  613.  536.   -21.30415
  47600   19.04    -21.42570   0.0277  613.  486.   -21.26657
  47800   19.12    -21.42513   0.0305  612.  536.   -21.26190
  48000   19.20    -21.42461   0.0311  612.  545.   -21.26595
  48200   19.28    -21.42411   0.0297  613.  521.   -21.26765
  48400   19.36    -21.42361   0.0405  613.  711.   -21.26945
  48600   19.44    -21.42312   0.0266  612.  467.   -21.27389
  48800   19.52    -21.42267   0.0344  613.  603.   -21.27624
  49000   19.60    -21.42226   0.0397  613.  697.   -21.28109
  49200   19.68    -21.42184   0.0313  613.  549.   -21.28368
  49400   19.76    -21.42143   0.0398  613.  698.   -21.28684
  49600   19.84    -21.42100   0.0242  613.  424.   -21.28942
  49800   19.92    -21.42060   0.0328  613.  575.   -21.29054
  50000   20.00    -21.42020   0.0272  612.  476.   -21.29216
block <Epot> / <T> :     -21.31745  570.     drift:  0.22D-01   Tbath : 300.
  50200   20.08    -21.41970   0.0511  612.  897.   -21.24948
  50400   20.16    -21.41926   0.0589  614. 1033.   -21.25595
  50600   20.24    -21.41891   0.0577  616. 1012.   -21.26359
  50800   20.32    -21.41852   0.0325  617.  571.   -21.26872
  51000   20.40    -21.41808   0.0267  617.  468.   -21.27271
  51200   20.48    -21.41764   0.0180  617.  316.   -21.27459
  51400   20.56    -21.41719   0.0248  616.  435.   -21.27675
  51600   20.64    -21.41677   0.0352  616.  618.   -21.27820
  51800   20.72    -21.41635   0.0258  616.  452.   -21.28060
  52000   20.80    -21.41601   0.0641  617. 1125.   -21.28532
  52200   20.88    -21.41569   0.0486  617.  853.   -21.28996
  52400   20.96    -21.41535   0.0220  617.  386.   -21.29268
  52600   21.04    -21.41498   0.0376  617.  660.   -21.25687
  52800   21.12    -21.41456   0.0513  618.  900.   -21.25460
  53000   21.20    -21.41412   0.0442  619.  775.   -21.25775
  53200   21.28    -21.41367   0.0253  618.  443.   -21.26024
  53400   21.36    -21.41324   0.0447  619.  784.   -21.26645
  53600   21.44    -21.41294   0.0869  620. 1524.   -21.27621
  53800   21.52    -21.41285   0.1386  625. 2431.   -21.28519
  54000   21.60    -21.41277   0.0975  629. 1711.   -21.30407
  54200   21.68    -21.41274   0.1215  633. 2131.   -21.31243
  54400   21.76    -21.41264   0.0695  635. 1219.   -21.32162
  54600   21.84    -21.41263   0.0911  638. 1598.   -21.32862
  54800   21.92    -21.41258   0.0446  640.  783.   -21.33753
  55000   22.00    -21.41255   0.0584  642. 1025.   -21.34743
block <Epot> / <T> :     -21.33621  938.     drift:  0.10D-01   Tbath : 300.
  55200   22.08    -21.41250   0.0922  644. 1617.   -21.31544
  55400   22.16    -21.41251   0.0827  648. 1452.   -21.32842
  55600   22.24    -21.41253   0.0767  651. 1346.   -21.33480
  55800   22.32    -21.41254   0.0592  654. 1038.   -21.34843
  56000   22.40    -21.41255   0.0643  655. 1128.   -21.35566
  56200   22.48    -21.41260   0.0602  657. 1057.   -21.36224
  56400   22.56    -21.41268   0.0674  659. 1182.   -21.36828
  56600   22.64    -21.41276   0.0420  660.  736.   -21.38210
  56800   22.72    -21.41284   0.0637  662. 1118.   -21.38491
  57000   22.80    -21.41295   0.0415  663.  728.   -21.39235
  57200   22.88    -21.41305   0.0483  663.  848.   -21.39842
  57400   22.96    -21.41315   0.0342  664.  600.   -21.39947
  57600   23.04    -21.41324   0.0546  664.  958.   -21.36446
  57800   23.12    -21.41327   0.0686  665. 1203.   -21.36706
  58000   23.20    -21.41337   0.0656  667. 1151.   -21.37576
  58200   23.28    -21.41348   0.0628  669. 1102.   -21.38233
  58400   23.36    -21.41356   0.0524  670.  920.   -21.38895
  58600   23.44    -21.41367   0.0601  671. 1054.   -21.39461
  58800   23.52    -21.41380   0.0507  672.  889.   -21.40090
  59000   23.60    -21.41388   0.0315  672.  553.   -21.40470
  59200   23.68    -21.41398   0.0417  672.  731.   -21.40649
  59400   23.76    -21.41409   0.0459  672.  805.   -21.41152
  59600   23.84    -21.41422   0.0321  672.  563.   -21.41323
  59800   23.92    -21.41433   0.0285  671.  501.   -21.41736
  60000   24.00    -21.41444   0.0260  671.  456.   -21.41943
block <Epot> / <T> :     -21.43527  987.     drift: -0.28D-01   Tbath : 300.
  60200   24.08    -21.41450   0.0638  671. 1118.   -21.38042
  60400   24.16    -21.41460   0.0414  672.  727.   -21.38728
  60600   24.24    -21.41468   0.0533  673.  935.   -21.39082
  60800   24.32    -21.41473   0.0314  673.  552.   -21.39489
  61000   24.40    -21.41478   0.0342  672.  601.   -21.39839
  61200   24.48    -21.41485   0.0394  672.  692.   -21.40196
  61400   24.56    -21.41497   0.0268  673.  470.   -21.40582
  61600   24.64    -21.41507   0.0292  673.  513.   -21.40976
  61800   24.72    -21.41517   0.0269  673.  472.   -21.41514
  62000   24.80    -21.41529   0.0301  673.  528.   -21.41470
  62200   24.88    -21.41541   0.0357  672.  626.   -21.41960
  62400   24.96    -21.41553   0.0241  672.  423.   -21.42325
  62600   25.04    -21.41562   0.0251  672.  439.   -21.38490
  62800   25.12    -21.41564   0.0537  672.  942.   -21.38176
  63000   25.20    -21.41570   0.0621  672. 1090.   -21.38709
  63200   25.28    -21.41595   0.1160  676. 2035.   -21.39972
  63400   25.36    -21.41628   0.1434  680. 2515.   -21.41874
  63600   25.44    -21.41664   0.0949  684. 1664.   -21.43882
  63800   25.52    -21.41702   0.0984  687. 1726.   -21.44313
  64000   25.60    -21.41742   0.0863  690. 1514.   -21.46046
  64200   25.68    -21.41785   0.0776  693. 1361.   -21.47220
  64400   25.76    -21.41828   0.0582  695. 1020.   -21.48006
  64600   25.84    -21.41870   0.0777  697. 1363.   -21.48802
  64800   25.92    -21.41914   0.0676  698. 1187.   -21.49948
  65000   26.00    -21.41959   0.0844  699. 1480.   -21.50413
block <Epot> / <T> :     -21.48172 1045.     drift: -0.59D-01   Tbath : 300.
  65200   26.08    -21.41997   0.0816  701. 1432.   -21.46887
  65400   26.16    -21.42038   0.0985  703. 1728.   -21.48017
  65600   26.24    -21.42082   0.0548  705.  961.   -21.48655
  65800   26.32    -21.42125   0.0816  707. 1431.   -21.49905
  66000   26.40    -21.42169   0.0595  708. 1044.   -21.50778
  66200   26.48    -21.42212   0.0484  709.  849.   -21.51179
  66400   26.56    -21.42259   0.0544  710.  954.   -21.51887
  66600   26.64    -21.42306   0.0409  711.  718.   -21.52751
  66800   26.72    -21.42354   0.0467  711.  819.   -21.53390
  67000   26.80    -21.42400   0.0562  712.  987.   -21.53730
  67200   26.88    -21.42447   0.0373  712.  655.   -21.53881
  67400   26.96    -21.42493   0.0454  712.  797.   -21.54394
  67600   27.04    -21.42538   0.0497  712.  872.   -21.51022
  67800   27.12    -21.42580   0.0766  713. 1343.   -21.50994
  68000   27.20    -21.42626   0.0527  714.  925.   -21.51753
  68200   27.28    -21.42671   0.0428  715.  751.   -21.52628
  68400   27.36    -21.42715   0.0504  715.  884.   -21.53112
  68600   27.44    -21.42760   0.0483  716.  848.   -21.53447
  68800   27.52    -21.42805   0.0464  716.  813.   -21.54116
  69000   27.60    -21.42850   0.0372  716.  653.   -21.54444
  69200   27.68    -21.42894   0.0364  716.  638.   -21.54675
  69400   27.76    -21.42938   0.0394  715.  690.   -21.55036
  69600   27.84    -21.42982   0.0348  715.  610.   -21.55236
  69800   27.92    -21.43027   0.0330  714.  579.   -21.55447
  70000   28.00    -21.43072   0.0244  714.  429.   -21.55774
block <Epot> / <T> :     -21.57543  902.     drift: -0.76D-01   Tbath : 300.
  70200   28.08    -21.43110   0.0540  714.  947.   -21.51420
  70400   28.16    -21.43153   0.0468  715.  821.   -21.52160
  70600   28.24    -21.43194   0.0433  715.  760.   -21.52893
  70800   28.32    -21.43236   0.0609  716. 1069.   -21.53355
  71000   28.40    -21.43279   0.0422  716.  740.   -21.54036
  71200   28.48    -21.43321   0.0427  716.  750.   -21.54425
  71400   28.56    -21.43360   0.0189  715.  332.   -21.54634
  71600   28.64    -21.43401   0.0376  715.  659.   -21.54765
  71800   28.72    -21.43443   0.0390  715.  684.   -21.55058
  72000   28.80    -21.43483   0.0175  714.  306.   -21.55185
  72200   28.88    -21.43523   0.0344  714.  603.   -21.55467
  72400   28.96    -21.43563   0.0176  713.  309.   -21.55608
  72600   29.04    -21.43602   0.0378  712.  663.   -21.51937
  72800   29.12    -21.43636   0.0391  712.  687.   -21.51713
  73000   29.20    -21.43670   0.0502  713.  881.   -21.51975
  73200   29.28    -21.43707   0.0332  713.  582.   -21.52478
  73400   29.36    -21.43745   0.0449  713.  788.   -21.53340
  73600   29.44    -21.43781   0.0289  713.  508.   -21.53417
  73800   29.52    -21.43817   0.0385  713.  676.   -21.53747
  74000   29.60    -21.43853   0.0331  712.  580.   -21.54086
  74200   29.68    -21.43890   0.0319  712.  560.   -21.54318
  74400   29.76    -21.43928   0.0403  712.  708.   -21.54543
  74600   29.84    -21.43967   0.0276  712.  484.   -21.54958
  74800   29.92    -21.44003   0.0275  711.  483.   -21.55120
  75000   30.00    -21.44041   0.0291  710.  511.   -21.55337
block <Epot> / <T> :     -21.57608  661.     drift: -0.52D-01   Tbath : 300.
  75200   30.08    -21.44073   0.0467  710.  819.   -21.50964
  75400   30.16    -21.44105   0.0483  711.  848.   -21.51388
  75600   30.24    -21.44137   0.0413  711.  725.   -21.51898
  75800   30.32    -21.44169   0.0421  711.  739.   -21.52175
  76000   30.40    -21.44200   0.0287  711.  503.   -21.52562
  76200   30.48    -21.44231   0.0375  710.  658.   -21.52922
  76400   30.56    -21.44261   0.0330  710.  580.   -21.53155
  76600   30.64    -21.44293   0.0380  709.  666.   -21.53389
  76800   30.72    -21.44326   0.0191  709.  334.   -21.53793
  77000   30.80    -21.44360   0.0367  709.  644.   -21.54030
  77200   30.88    -21.44393   0.0362  708.  635.   -21.54268
  77400   30.96    -21.44427   0.0248  708.  436.   -21.54457
  77600   31.04    -21.44457   0.0275  707.  483.   -21.50959
  77800   31.12    -21.44481   0.0257  707.  451.   -21.50287
  78000   31.20    -21.44510   0.0561  707.  984.   -21.50871
  78200   31.28    -21.44537   0.0338  707.  593.   -21.51330
  78400   31.36    -21.44562   0.0223  707.  390.   -21.51549
  78600   31.44    -21.44589   0.0470  707.  825.   -21.51822
  78800   31.52    -21.44617   0.0320  707.  562.   -21.52073
  79000   31.60    -21.44644   0.0301  706.  528.   -21.52480
  79200   31.68    -21.44672   0.0351  706.  615.   -21.52657
  79400   31.76    -21.44701   0.0266  705.  467.   -21.52984
  79600   31.84    -21.44728   0.0175  705.  307.   -21.53128
  79800   31.92    -21.44756   0.0333  704.  584.   -21.53227
  80000   32.00    -21.44786   0.0251  704.  440.   -21.53627
block <Epot> / <T> :     -21.55957  605.     drift: -0.23D-01   Tbath : 300.
  80200   32.08    -21.44809   0.0460  703.  808.   -21.49259
  80400   32.16    -21.44832   0.0422  704.  740.   -21.49734
  80600   32.24    -21.44855   0.0517  704.  906.   -21.50070
  80800   32.32    -21.44881   0.0467  704.  819.   -21.50938
  81000   32.40    -21.44905   0.0399  704.  700.   -21.50936
  81200   32.48    -21.44929   0.0212  704.  372.   -21.51427
  81400   32.56    -21.44952   0.0398  703.  697.   -21.51716
  81600   32.64    -21.44977   0.0244  703.  428.   -21.51990
  81800   32.72    -21.45002   0.0312  702.  547.   -21.52150
  82000   32.80    -21.45027   0.0351  702.  617.   -21.52437
  82200   32.88    -21.45053   0.0345  702.  604.   -21.52712
  82400   32.96    -21.45077   0.0250  701.  438.   -21.52909
  82600   33.04    -21.45100   0.0249  700.  437.   -21.49233
  82800   33.12    -21.45114   0.0286  700.  501.   -21.48527
  83000   33.20    -21.45129   0.0269  699.  471.   -21.48699
  83200   33.28    -21.45147   0.0373  699.  655.   -21.49037
  83400   33.36    -21.45167   0.0518  699.  909.   -21.49455
  83600   33.44    -21.45188   0.0385  699.  675.   -21.49918
  83800   33.52    -21.45209   0.0303  699.  531.   -21.50482
  84000   33.60    -21.45230   0.0331  699.  581.   -21.50624
  84200   33.68    -21.45249   0.0289  698.  507.   -21.50899
  84400   33.76    -21.45272   0.0284  698.  499.   -21.51202
  84600   33.84    -21.45292   0.0285  698.  500.   -21.51476
  84800   33.92    -21.45315   0.0225  697.  394.   -21.51909
  85000   34.00    -21.45337   0.0311  697.  546.   -21.51948
block <Epot> / <T> :     -21.54143  585.     drift:  0.12D-01   Tbath : 300.
  85200   34.08    -21.45354   0.0421  697.  739.   -21.47841
  85400   34.16    -21.45373   0.0403  697.  707.   -21.48242
  85600   34.24    -21.45391   0.0450  697.  790.   -21.48870
  85800   34.32    -21.45408   0.0342  697.  600.   -21.49404
  86000   34.40    -21.45429   0.0371  698.  651.   -21.49878
  86200   34.48    -21.45447   0.0348  697.  610.   -21.50155
  86400   34.56    -21.45466   0.0323  697.  567.   -21.50559
  86600   34.64    -21.45484   0.0296  696.  520.   -21.50768
  86800   34.72    -21.45504   0.0320  696.  561.   -21.51053
  87000   34.80    -21.45524   0.0407  696.  715.   -21.51284
  87200   34.88    -21.45548   0.0384  696.  674.   -21.51873
  87400   34.96    -21.45571   0.0283  696.  496.   -21.52098
  87600   35.04    -21.45592   0.0324  696.  569.   -21.48835
  87800   35.12    -21.45607   0.0446  695.  782.   -21.48406
  88000   35.20    -21.45625   0.0514  696.  902.   -21.48931
  88200   35.28    -21.45646   0.0577  697. 1012.   -21.49615
  88400   35.36    -21.45668   0.0395  697.  692.   -21.50159
  88600   35.44    -21.45687   0.0344  697.  604.   -21.50586
  88800   35.52    -21.45708   0.0548  697.  961.   -21.51070
  89000   35.60    -21.45732   0.0435  698.  763.   -21.51553
  89200   35.68    -21.45754   0.0479  698.  840.   -21.51997
  89400   35.76    -21.45778   0.0398  698.  699.   -21.52355
  89600   35.84    -21.45801   0.0295  698.  517.   -21.52693
  89800   35.92    -21.45823   0.0260  697.  456.   -21.52907
  90000   36.00    -21.45846   0.0277  697.  486.   -21.53273
block <Epot> / <T> :     -21.54505  695.     drift:  0.11D-01   Tbath : 300.
  90200   36.08    -21.45863   0.0397  696.  696.   -21.48722
  90400   36.16    -21.45882   0.0526  697.  922.   -21.49278
  90600   36.24    -21.45897   0.0194  697.  341.   -21.49529
  90800   36.32    -21.45912   0.0381  696.  669.   -21.49709
  91000   36.40    -21.45930   0.0387  696.  679.   -21.50247
  91200   36.48    -21.45949   0.0508  696.  892.   -21.50517
  91400   36.56    -21.45969   0.0323  697.  567.   -21.51078
  91600   36.64    -21.45988   0.0424  696.  744.   -21.51392
  91800   36.72    -21.46009   0.0296  696.  520.   -21.51669
  92000   36.80    -21.46027   0.0251  696.  441.   -21.51985
  92200   36.88    -21.46045   0.0197  695.  345.   -21.51982
  92400   36.96    -21.46064   0.0318  695.  559.   -21.52251
  92600   37.04    -21.46082   0.0209  694.  367.   -21.48847
  92800   37.12    -21.46092   0.0362  694.  636.   -21.47851
  93000   37.20    -21.46106   0.0406  694.  712.   -21.48373
  93200   37.28    -21.46122   0.0517  694.  908.   -21.48739
  93400   37.36    -21.46135   0.0333  694.  583.   -21.49105
  93600   37.44    -21.46150   0.0549  694.  962.   -21.49513
  93800   37.52    -21.46168   0.0400  695.  701.   -21.49919
  94000   37.60    -21.46185   0.0429  695.  753.   -21.50453
  94200   37.68    -21.46204   0.0358  695.  628.   -21.50955
  94400   37.76    -21.46220   0.0272  694.  476.   -21.51075
  94600   37.84    -21.46236   0.0206  694.  361.   -21.51182
  94800   37.92    -21.46253   0.0165  693.  289.   -21.51428
  95000   38.00    -21.46268   0.0199  693.  348.   -21.51705
block <Epot> / <T> :     -21.53857  619.     drift:  0.59D-02   Tbath : 300.
  95200   38.08    -21.46280   0.0451  692.  791.   -21.47049
  95400   38.16    -21.46290   0.0272  692.  476.   -21.47429
  95600   38.24    -21.46300   0.0442  692.  775.   -21.47743
  95800   38.32    -21.46313   0.0365  692.  641.   -21.48360
  96000   38.40    -21.46325   0.0399  692.  700.   -21.48646
  96200   38.48    -21.46340   0.0355  693.  623.   -21.49028
  96400   38.56    -21.46353   0.0473  692.  831.   -21.49346
  96600   38.64    -21.46370   0.0438  693.  768.   -21.49812
  96800   38.72    -21.46385   0.0385  693.  676.   -21.50208
  97000   38.80    -21.46403   0.0269  693.  472.   -21.50568
  97200   38.88    -21.46416   0.0214  692.  376.   -21.50763
  97400   38.96    -21.46432   0.0374  692.  656.   -21.50984
  97600   39.04    -21.46445   0.0300  691.  526.   -21.47784
  97800   39.12    -21.46457   0.0406  692.  712.   -21.47301
  98000   39.20    -21.46469   0.0465  692.  817.   -21.47854
  98200   39.28    -21.46482   0.0505  692.  886.   -21.48357
  98400   39.36    -21.46495   0.0360  693.  631.   -21.48755
  98600   39.44    -21.46507   0.0409  692.  718.   -21.49078
  98800   39.52    -21.46519   0.0261  692.  457.   -21.49233
  99000   39.60    -21.46530   0.0283  692.  496.   -21.49463
  99200   39.68    -21.46541   0.0154  691.  271.   -21.49522
  99400   39.76    -21.46552   0.0350  691.  613.   -21.49875
  99600   39.84    -21.46566   0.0249  690.  436.   -21.49979
  99800   39.92    -21.46581   0.0236  690.  415.   -21.50479
 100000   40.00    -21.46594   0.0288  690.  505.   -21.50576
block <Epot> / <T> :     -21.52793  639.     drift:  0.47D-02   Tbath : 300.
 100200   40.08    -21.46603   0.0458  690.  804.   -21.45965
 100400   40.16    -21.46612   0.0542  690.  950.   -21.46531
 100600   40.24    -21.46623   0.0456  690.  799.   -21.47126
 100800   40.32    -21.46633   0.0343  690.  601.   -21.47636
 101000   40.40    -21.46644   0.0374  691.  656.   -21.47903
 101200   40.48    -21.46653   0.0434  690.  762.   -21.48400
 101400   40.56    -21.46665   0.0432  690.  757.   -21.48840
 101600   40.64    -21.46677   0.0379  690.  665.   -21.49194
 101800   40.72    -21.46688   0.0291  690.  511.   -21.49452
 102000   40.80    -21.46700   0.0348  690.  610.   -21.49780
 102200   40.88    -21.46712   0.0327  690.  574.   -21.49973
 102400   40.96    -21.46724   0.0362  689.  635.   -21.49922
 102600   41.04    -21.46736   0.0312  689.  547.   -21.47016
 102800   41.12    -21.46741   0.0315  689.  553.   -21.45997
 103000   41.20    -21.46747   0.0400  689.  702.   -21.46233
 103200   41.28    -21.46757   0.0409  689.  718.   -21.46911
 103400   41.36    -21.46763   0.0248  689.  436.   -21.47130
 103600   41.44    -21.46771   0.0461  689.  809.   -21.47438
 103800   41.52    -21.46780   0.0259  689.  454.   -21.47692
 104000   41.60    -21.46787   0.0359  688.  629.   -21.47879
 104200   41.68    -21.46797   0.0466  688.  817.   -21.48370
 104400   41.76    -21.46809   0.0395  688.  693.   -21.48773
 104600   41.84    -21.46821   0.0248  688.  435.   -21.48968
 104800   41.92    -21.46832   0.0308  688.  541.   -21.49429
 105000   42.00    -21.46842   0.0228  688.  399.   -21.49580
block <Epot> / <T> :     -21.51799  644.     drift:  0.92D-02   Tbath : 300.
 105200   42.08    -21.46849   0.0489  688.  857.   -21.45246
 105400   42.16    -21.46857   0.0515  688.  903.   -21.45859
 105600   42.24    -21.46864   0.0462  688.  811.   -21.46405
 105800   42.32    -21.46873   0.0397  689.  697.   -21.46865
 106000   42.40    -21.46879   0.0283  688.  496.   -21.47270
 106200   42.48    -21.46885   0.0303  688.  532.   -21.47349
 106400   42.56    -21.46893   0.0387  688.  679.   -21.47469
 106600   42.64    -21.46900   0.0192  687.  336.   -21.47701
 106800   42.72    -21.46907   0.0460  687.  807.   -21.48214
 107000   42.80    -21.46918   0.0413  687.  725.   -21.48257
 107200   42.88    -21.46926   0.0311  687.  546.   -21.48564
 107400   42.96    -21.46937   0.0357  687.  626.   -21.49078
 107600   43.04    -21.46946   0.0373  687.  655.   -21.45885
 107800   43.12    -21.46950   0.0434  687.  761.   -21.45190
 108000   43.20    -21.46956   0.0500  687.  877.   -21.45595
 108200   43.28    -21.46965   0.0520  688.  911.   -21.46128
 108400   43.36    -21.46972   0.0291  688.  511.   -21.46775
 108600   43.44    -21.46978   0.0441  688.  774.   -21.46994
 108800   43.52    -21.46986   0.0446  688.  782.   -21.47439
 109000   43.60    -21.46994   0.0350  688.  613.   -21.47743
 109200   43.68    -21.47002   0.0402  688.  706.   -21.48019
 109400   43.76    -21.47010   0.0283  687.  496.   -21.48266
 109600   43.84    -21.47017   0.0201  687.  353.   -21.48579
 109800   43.92    -21.47027   0.0324  687.  569.   -21.48675
 110000   44.00    -21.47035   0.0296  686.  519.   -21.48980
block <Epot> / <T> :     -21.51074  660.     drift:  0.93D-02   Tbath : 300.
 110200   44.08    -21.47039   0.0301  686.  528.   -21.44765
 110400   44.16    -21.47044   0.0493  686.  864.   -21.45049
 110600   44.24    -21.47049   0.0354  687.  621.   -21.45552
 110800   44.32    -21.47051   0.0365  686.  640.   -21.45833
 111000   44.40    -21.47058   0.0457  687.  801.   -21.46287
 111200   44.48    -21.47065   0.0463  687.  812.   -21.46716
 111400   44.56    -21.47073   0.0273  687.  480.   -21.47192
 111600   44.64    -21.47079   0.0258  687.  453.   -21.47348
 111800   44.72    -21.47085   0.0273  686.  478.   -21.47664
 112000   44.80    -21.47092   0.0352  686.  617.   -21.47873
 112200   44.88    -21.47100   0.0292  686.  512.   -21.48108
 112400   44.96    -21.47107   0.0371  686.  650.   -21.48454
 112600   45.04    -21.47114   0.0183  685.  320.   -21.45317
 112800   45.12    -21.47116   0.0448  685.  786.   -21.44200
 113000   45.20    -21.47117   0.0302  685.  530.   -21.44506
 113200   45.28    -21.47118   0.0259  685.  454.   -21.44855
 113400   45.36    -21.47119   0.0238  685.  417.   -21.45009
 113600   45.44    -21.47122   0.0390  684.  684.   -21.45308
 113800   45.52    -21.47125   0.0311  684.  546.   -21.45667
 114000   45.60    -21.47127   0.0283  684.  496.   -21.45858
 114200   45.68    -21.47132   0.0327  684.  574.   -21.46119
 114400   45.76    -21.47136   0.0379  684.  664.   -21.46454
 114600   45.84    -21.47140   0.0456  683.  799.   -21.46662
 114800   45.92    -21.47147   0.0391  684.  687.   -21.47280
 115000   46.00    -21.47154   0.0351  683.  616.   -21.47415
block <Epot> / <T> :     -21.49766  617.     drift:  0.98D-02   Tbath : 300.
 115200   46.08    -21.47156   0.0408  683.  716.   -21.43304
 115400   46.16    -21.47158   0.0500  684.  878.   -21.43701
 115600   46.24    -21.47159   0.0293  683.  513.   -21.44051
 115800   46.32    -21.47160   0.0378  683.  664.   -21.44371
 116000   46.40    -21.47162   0.0373  683.  654.   -21.44749
 116200   46.48    -21.47166   0.0463  684.  812.   -21.45247
 116400   46.56    -21.47169   0.0334  684.  586.   -21.45548
 116600   46.64    -21.47172   0.0279  683.  490.   -21.45642
 116800   46.72    -21.47175   0.0503  683.  882.   -21.45896
 117000   46.80    -21.47181   0.0376  683.  660.   -21.46534
 117200   46.88    -21.47186   0.0368  683.  645.   -21.47018
 117400   46.96    -21.47191   0.0306  683.  537.   -21.47186
 117600   47.04    -21.47196   0.0370  683.  649.   -21.44271
 117800   47.12    -21.47195   0.0386  682.  677.   -21.42961
 118000   47.20    -21.47194   0.0395  682.  693.   -21.43379
 118200   47.28    -21.47196   0.0572  683. 1004.   -21.43845
 118400   47.36    -21.47198   0.0282  683.  495.   -21.44221
 118600   47.44    -21.47197   0.0350  682.  615.   -21.44395
 118800   47.52    -21.47198   0.0511  682.  897.   -21.44705
 119000   47.60    -21.47202   0.0196  682.  343.   -21.45113
 119200   47.68    -21.47205   0.0476  682.  836.   -21.45370
 119400   47.76    -21.47208   0.0313  682.  549.   -21.45754
 119600   47.84    -21.47210   0.0416  682.  729.   -21.46047
 119800   47.92    -21.47215   0.0310  682.  544.   -21.46337
 120000   48.00    -21.47219   0.0332  682.  583.   -21.46615
block <Epot> / <T> :     -21.48727  640.     drift:  0.11D-01   Tbath : 300.
 120200   48.08    -21.47222   0.0572  682. 1003.   -21.42644
 120400   48.16    -21.47222   0.0425  682.  746.   -21.43073
 120600   48.24    -21.47220   0.0337  682.  591.   -21.43353
 120800   48.32    -21.47219   0.0380  681.  666.   -21.43539
 121000   48.40    -21.47220   0.0289  681.  508.   -21.43904
 121200   48.48    -21.47218   0.0264  681.  463.   -21.43998
 121400   48.56    -21.47218   0.0345  681.  605.   -21.44223
 121600   48.64    -21.47218   0.0219  680.  384.   -21.44439
 121800   48.72    -21.47218   0.0221  680.  388.   -21.44556
 122000   48.80    -21.47218   0.0218  680.  383.   -21.44729
 122200   48.88    -21.47219   0.0165  680.  289.   -21.44896
 122400   48.96    -21.47222   0.0548  680.  962.   -21.45286
 122600   49.04    -21.47225   0.0323  680.  567.   -21.42600
 122800   49.12    -21.47223   0.0409  680.  717.   -21.41547
 123000   49.20    -21.47221   0.0313  680.  549.   -21.41941
 123200   49.28    -21.47218   0.0340  680.  596.   -21.42365
 123400   49.36    -21.47216   0.0300  680.  526.   -21.42631
 123600   49.44    -21.47214   0.0436  679.  764.   -21.42887
 123800   49.52    -21.47215   0.0389  680.  682.   -21.43194
 124000   49.60    -21.47217   0.0315  680.  553.   -21.43796
 124200   49.68    -21.47217   0.0261  680.  458.   -21.44174
 124400   49.76    -21.47216   0.0299  679.  524.   -21.44177
 124600   49.84    -21.47216   0.0255  679.  448.   -21.44337
 124800   49.92    -21.47216   0.0251  679.  440.   -21.44708
 average properties 
 Epot               :  -21.4721732207023     
 Epot (accurate SCC):  -21.4723407317043     
 Ekin               :  3.867624208752022E-002
 Etot               :  -21.4334969786148     
 T                  :   678.500156444718     
 thermostating problem
 normal exit of md()

------------------------------------------------------------------------
 * finished run on 2021/03/15 at 00:22:11.109     
------------------------------------------------------------------------
 total:
 * wall-time:     0 d,  0 h, 25 min,  2.390 sec
 *  cpu-time:     0 d,  0 h, 24 min, 42.724 sec
 * ratio c/w:     0.987 speedup
 SCF:
 * wall-time:     0 d,  0 h,  0 min,  0.877 sec
 *  cpu-time:     0 d,  0 h,  0 min,  0.044 sec
 * ratio c/w:     0.050 speedup
 MD:
 * wall-time:     0 d,  0 h, 25 min,  0.395 sec
 *  cpu-time:     0 d,  0 h, 24 min, 42.640 sec
 * ratio c/w:     0.988 speedup

