      -----------------------------------------------------------      
     |                   =====================                   |     
     |                           x T B                           |     
     |                   =====================                   |     
     |                         S. Grimme                         |     
     |          Mulliken Center for Theoretical Chemistry        |     
     |                    University of Bonn                     |     
     |                 Version 6.1.4 (SAW190525)                 |     
      -----------------------------------------------------------      

   This program is distributed in the hope that it will be useful,
   but WITHOUT ANY WARRANTY; without even the implied warranty of
   MERCHANTABILITY or FITNESS FOR A PARTICULAR PURPOSE.
   
   FOR NON-COMMERCIAL, ACADEMIA USE ONLY.
   
   Cite this work as:
   S. Grimme, C. Bannwarth, P. Shushkov, J. Comput. Theory Chem., 2017,
   13, 1989-2009. DOI: 10.1021/acs.jctc.7b00118
   C. Bannwarth, S. Ehlert and S. Grimme., J. Comput. Theory Chem., 2019,
   just accepted. DOI: 10.1021/acs.jctc.8b01176
   
   for sTDA-xTB:
   S. Grimme and C. Bannwarth, J. Chem. Phys., 2016, 145, 054103.
   DOI: 10.1063/1.4959605
   
   in the mass-spec context:
   V. Asgeirsson, C. Bauer and S. Grimme, Chem. Sci., 2017, 8, 4879.
   DOI: 10.1039/c7sc00601b
   
   for metadynamics refer to:
   S. Grimme, J. Chem. Theory Comput. Article ASAP, 2019,
   DOI: 10.1021/acs.jctc.9b00143
   
   with help from (in alphabetical order)
   C. Bannwarth, F. Bohle, G. Brandenburg, E. Caldeweyher, M. Checinski,
   S. Dohm, S. Ehlert, S. Ehrlich, F. März, H. Neugebauer, J. Pisarek,
   P. Pracht, P. Shushkov, and S. Spicher.
   
 * started run on 2021/06/02 at 10:00:06.329     

           -------------------------------------------------
          |                Calculation Setup                |
           -------------------------------------------------

          program call               : /groups/kemi/koerstz/opt/xtb/6.1/bin/xtb 1.xyz --gfn2 --acc 0.2 --chrg 0
          hostname                   : node305
          coordinate file            : 1.xyz
          omp threads                :                     1
          number of atoms            :                     9
          number of electrons        :                    36
          charge                     :                     0
          spin                       :                   0.0
          first test random number   :      0.68060021095491


########################################################################
# WARNING! Please study the warnings concerning your input carefully
#  - XTBPATH is not set, using XTBHOME instead
########################################################################

           ------------------------------------------------- 
          |                 G F N 2 - x T B                 |
          | Geometry, Frequencies, Noncovalent interactions |
          |            JCTC 2018 parametrisation            |
           ------------------------------------------------- 
             k(s)              :                1.8500
             k(p)              :                2.2300
             k(d)              :                2.2300
             k(f)              :                2.0000
             kEN (H0ij)        :               -2.0000
             D4 a1             :                0.5200
             D4 a2             :                5.0000
             D4 s6             :                1.0000
             D4 s8             :                2.7000
             D4 s9             :                5.0000
             alphaj            :                2.0000

  Z AO/shell   Hii/eV     exponent
  1     Wed Apr 25 08:07:45 CEST 2018   EN: 2.200 GM2: 0.406  GM3: 0.0800  RAES: 1.40
     1s    -10.707211    1.230000
  6     Wed Apr 25 08:07:45 CEST 2018   EN: 2.550 GM2: 0.538  GM3: 0.1500  RAES: 3.00
     2s    -13.970922    2.096432
     2p    -10.063292    1.800000
  7     Wed Apr 25 08:07:45 CEST 2018   EN: 3.040 GM2: 0.461  GM3:-0.0640  RAES: 1.90
     2s    -16.686243    2.339881
     2p    -12.523956    2.014332
  8     Wed Apr 25 08:07:45 CEST 2018   EN: 3.440 GM2: 0.452  GM3:-0.0517  RAES: 1.80
     2s    -20.229985    2.439742
     2p    -15.503117    2.137023


            Z     q(EN)     CN     RAES       Cart. coordinates
     1  N   5.0   -0.46    2.00    1.90    -1.53416     1.11145    -0.56621
     2  C   4.0    0.30    3.03    3.02    -0.39911    -0.91643    -0.09980
     3  N   5.0   -0.04    2.47    1.90    -1.47150    -3.35228    -0.71663
     4  N   5.0   -0.19    1.00    1.90    -3.23084    -4.21475    -1.59105
     5  O   6.0   -0.04    1.47    1.80     1.10016    -5.28131     0.44038
     6  N   5.0   -0.19    2.03    1.90     2.66865    -3.66243     1.25377
     7  C   4.0    0.12    3.04    3.02     2.02953    -1.31972     1.04414
     8  H   1.0    0.33    1.00    1.43    -3.26046     0.97528    -1.39765
     9  H   1.0    0.17    1.00    1.43     3.24985     0.15879     1.69169

           ------------------------------------------------- 
          |        Self-Consistent Charge Iterations        |
           ------------------------------------------------- 
q/qsh data taken from xtbrestart
CAMM data taken from xtbrestart

          ...................................................
          :                      SETUP                      :
          :.................................................:
          :  # basis functions                  30          :
          :  # atomic orbitals                  30          :
          :  # shells                           16          :
          :  # electrons                        36          :
          :  max. iterations                   250          :
          :  Hamiltonian                  GFN2-xTB          :
          :  restarted?                       true          :
          :  GBSA solvation                  false          :
          :  PC potential                    false          :
          :  electronic temp.          300.0000000     K    :
          :  accuracy                    0.2000000          :
          :  -> integral cutoff          0.3198970E+02      :
          :  -> integral neglect         0.2000000E-08      :
          :  -> SCF convergence          0.2000000E-06 Eh   :
          :  -> wf. convergence          0.2000000E-04 e    :
          :  Broyden damping             0.4000000          :
          ...................................................

 iter      E             dE          RMSdq      gap      omega  full diag
   1    -21.0043588 -0.210044E+02  0.702E+00    1.54       0.0  T
   2    -21.0713045 -0.669457E-01  0.422E+00    1.31       1.0  T
   3    -21.0861190 -0.148144E-01  0.237E+00    0.99       1.0  T
   4    -21.0971722 -0.110533E-01  0.802E-01    0.94       1.0  T
   5    -21.0994306 -0.225841E-02  0.334E-01    0.75       1.0  T
   6    -21.1001395 -0.708851E-03  0.172E-01    0.81       1.0  T
   7    -21.1002087 -0.692599E-04  0.433E-02    0.80       1.0  T
   8    -21.1002139 -0.520481E-05  0.213E-02    0.80       1.6  T
   9    -21.1002143 -0.347110E-06  0.782E-03    0.80       4.3  T
  10    -21.1002145 -0.242423E-06  0.324E-03    0.80      10.3  T
  11    -21.1002145 -0.111935E-07  0.109E-03    0.80      30.6  T
  12    -21.1002145 -0.466547E-08  0.269E-04    0.80     123.8  T
  13    -21.1002145 -0.406573E-10  0.477E-05    0.80     698.1  T
  14    -21.1002145 -0.217071E-11  0.179E-05    0.80    1862.9  T

   *** convergence criteria satisfied after 14 iterations ***

         #    Occupation            Energy/Eh            Energy/eV
      -------------------------------------------------------------
         1        2.0000           -0.7593888             -20.6640
       ...           ...                  ...                  ...
        12        2.0000           -0.5393169             -14.6756
        13        2.0000           -0.5326960             -14.4954
        14        2.0000           -0.5023881             -13.6707
        15        2.0000           -0.4943709             -13.4525
        16        2.0000           -0.4561097             -12.4114
        17        2.0000           -0.4403915             -11.9837
        18        2.0000           -0.3978618             -10.8264 (HOMO)
        19        0.0000           -0.3685389             -10.0285 (LUMO)
        20                         -0.2932969              -7.9810
        21                         -0.2853561              -7.7649
        22                         -0.1992583              -5.4221
        23                         -0.0083790              -0.2280
       ...                                ...                  ...
        30                          0.7392026              20.1147
      -------------------------------------------------------------
                  HL-Gap            0.0293229 Eh            0.7979 eV
             Fermi-level           -0.3832003 Eh          -10.4274 eV

 SCC (total)                   0 d,  0 h,  0 min,  0.007 sec
 SCC setup                      ...        0 min,  0.000 sec (  1.729%)
 Dispersion                     ...        0 min,  0.000 sec (  0.844%)
 integral evaluation            ...        0 min,  0.001 sec ( 14.419%)
 zeroth order Hamiltonian       ...        0 min,  0.000 sec (  0.415%)
 iterations                     ...        0 min,  0.004 sec ( 53.872%)
 molecular gradient             ...        0 min,  0.002 sec ( 26.027%)
 printout                       ...        0 min,  0.000 sec (  2.237%)

         :::::::::::::::::::::::::::::::::::::::::::::::::::::
         ::                     SUMMARY                     ::
         :::::::::::::::::::::::::::::::::::::::::::::::::::::
         :: total energy              -20.867214138910 Eh   ::
         :: gradient norm               0.002508118983 Eh/α ::
         :: HOMO-LUMO gap               0.797915455645 eV   ::
         ::.................................................::
         :: SCC energy                -21.100214533059 Eh   ::
         :: -> isotropic ES             0.027547428374 Eh   ::
         :: -> anisotropic ES           0.003480686942 Eh   ::
         :: -> anisotropic XC           0.029926568337 Eh   ::
         :: -> dispersion              -0.006054693521 Eh   ::
         :: repulsion energy            0.232997276224 Eh   ::
         :: add. restraining            0.000000000000 Eh   ::
         :::::::::::::::::::::::::::::::::::::::::::::::::::::

           -------------------------------------------------
          |                Property Printout                |
           -------------------------------------------------

    * Orbital Energies and Occupations

         #    Occupation            Energy/Eh            Energy/eV
      -------------------------------------------------------------
         1        2.0000           -0.7593888             -20.6640
       ...           ...                  ...                  ...
         6        2.0000           -0.6534471             -17.7812
         7        2.0000           -0.6257974             -17.0288
         8        2.0000           -0.6165359             -16.7768
         9        2.0000           -0.5840880             -15.8938
        10        2.0000           -0.5788807             -15.7521
        11        2.0000           -0.5541174             -15.0783
        12        2.0000           -0.5393169             -14.6756
        13        2.0000           -0.5326960             -14.4954
        14        2.0000           -0.5023881             -13.6707
        15        2.0000           -0.4943709             -13.4525
        16        2.0000           -0.4561097             -12.4114
        17        2.0000           -0.4403915             -11.9837
        18        2.0000           -0.3978618             -10.8264 (HOMO)
        19        0.0000           -0.3685389             -10.0285 (LUMO)
        20                         -0.2932969              -7.9810
        21                         -0.2853561              -7.7649
        22                         -0.1992583              -5.4221
        23                         -0.0083790              -0.2280
        24                          0.0508780               1.3845
        25                          0.0921135               2.5065
        26                          0.2171780               5.9097
        27                          0.3181805               8.6581
        28                          0.4082043              11.1078
        29                          0.5531569              15.0522
        30                          0.7392026              20.1147
      -------------------------------------------------------------
                  HL-Gap            0.0293229 Eh            0.7979 eV
             Fermi-level           -0.3832003 Eh          -10.4274 eV

   #   Z        covCN         q      C6AA      α(0)
   1   7 N      1.778    -0.271    27.857     7.816
   2   6 C      2.828     0.163    24.471     8.106
   3   7 N      2.324     0.216    17.857     6.274
   4   7 N      0.985    -0.133    23.504     6.973
   5   8 O      1.360    -0.271    18.850     5.843
   6   7 N      1.861     0.034    21.324     6.845
   7   6 C      2.857    -0.001    28.049     8.681
   8   1 H      0.860     0.179     1.221     1.731
   9   1 H      0.926     0.084     1.938     2.177

 Mol. C6AA /au·bohr⁶  :       1295.010792
 Mol. C8AA /au·bohr⁸  :      29606.576194
 Mol. α(0) /au        :         54.445060


Wiberg/Mayer (AO) data.
largest (>0.10) Wiberg bond orders for each atom
          total WBO             WBO to atom ...
     1  N   3.109        C    2 1.793    H    8 0.935    N    4 0.119
     2  C   3.953        N    1 1.793    C    7 1.123    N    3 0.917
     3  N   3.782        N    4 2.310    C    2 0.917    O    5 0.380
     4  N   2.829        N    3 2.310    O    5 0.266    N    1 0.119
     5  O   2.272        N    6 1.313    N    3 0.380    N    4 0.266    C    7 0.177
     6  N   3.220        C    7 1.624    O    5 1.313
     7  C   3.968        N    6 1.624    C    2 1.123    H    9 0.959    O    5 0.177
     8  H   0.968        N    1 0.935
     9  H   0.993        C    7 0.959

molecular dipole:
                 x           y           z       tot (Debye)
 q only:       -0.057       0.881       0.008
   full:       -0.218       0.892      -0.067       2.339
molecular quadrupole (traceless):
                xx          xy          yy          xz          yz          zz
 q only:        4.559       0.745      -7.787       0.858       0.101       3.229
  q+dip:        5.175       0.792     -10.126       0.126      -0.053       4.951
   full:        4.553       0.702     -10.995      -1.195      -0.218       6.442


           -------------------------------------------------
          | TOTAL ENERGY              -20.867214138910 Eh   |
          | GRADIENT NORM               0.002508118983 Eh/α |
          | HOMO-LUMO GAP               0.797915455645 eV   |
           -------------------------------------------------

------------------------------------------------------------------------
 * finished run on 2021/06/02 at 10:00:06.344     
------------------------------------------------------------------------
 total:
 * wall-time:     0 d,  0 h,  0 min,  0.015 sec
 *  cpu-time:     0 d,  0 h,  0 min,  0.015 sec
 * ratio c/w:     0.986 speedup
 SCF:
 * wall-time:     0 d,  0 h,  0 min,  0.008 sec
 *  cpu-time:     0 d,  0 h,  0 min,  0.008 sec
 * ratio c/w:     1.000 speedup

