      -----------------------------------------------------------      
     |                   =====================                   |     
     |                           x T B                           |     
     |                   =====================                   |     
     |                         S. Grimme                         |     
     |          Mulliken Center for Theoretical Chemistry        |     
     |                    University of Bonn                     |     
     |                 Version 6.1.4 (SAW190525)                 |     
      -----------------------------------------------------------      

   This program is distributed in the hope that it will be useful,
   but WITHOUT ANY WARRANTY; without even the implied warranty of
   MERCHANTABILITY or FITNESS FOR A PARTICULAR PURPOSE.
   
   FOR NON-COMMERCIAL, ACADEMIA USE ONLY.
   
   Cite this work as:
   S. Grimme, C. Bannwarth, P. Shushkov, J. Comput. Theory Chem., 2017,
   13, 1989-2009. DOI: 10.1021/acs.jctc.7b00118
   C. Bannwarth, S. Ehlert and S. Grimme., J. Comput. Theory Chem., 2019,
   just accepted. DOI: 10.1021/acs.jctc.8b01176
   
   for sTDA-xTB:
   S. Grimme and C. Bannwarth, J. Chem. Phys., 2016, 145, 054103.
   DOI: 10.1063/1.4959605
   
   in the mass-spec context:
   V. Asgeirsson, C. Bauer and S. Grimme, Chem. Sci., 2017, 8, 4879.
   DOI: 10.1039/c7sc00601b
   
   for metadynamics refer to:
   S. Grimme, J. Chem. Theory Comput. Article ASAP, 2019,
   DOI: 10.1021/acs.jctc.9b00143
   
   with help from (in alphabetical order)
   C. Bannwarth, F. Bohle, G. Brandenburg, E. Caldeweyher, M. Checinski,
   S. Dohm, S. Ehlert, S. Ehrlich, F. März, H. Neugebauer, J. Pisarek,
   P. Pracht, P. Shushkov, and S. Spicher.
   
 * started run on 2021/06/02 at 10:00:06.991     

           -------------------------------------------------
          |                Calculation Setup                |
           -------------------------------------------------

          program call               : /groups/kemi/koerstz/opt/xtb/6.1/bin/xtb 12.xyz --gfn2 --acc 0.2 --chrg 0
          hostname                   : node305
          coordinate file            : 12.xyz
          omp threads                :                     1
          number of atoms            :                     9
          number of electrons        :                    36
          charge                     :                     0
          spin                       :                   0.0
          first test random number   :      0.48761194359838


########################################################################
# WARNING! Please study the warnings concerning your input carefully
#  - XTBPATH is not set, using XTBHOME instead
########################################################################

           ------------------------------------------------- 
          |                 G F N 2 - x T B                 |
          | Geometry, Frequencies, Noncovalent interactions |
          |            JCTC 2018 parametrisation            |
           ------------------------------------------------- 
             k(s)              :                1.8500
             k(p)              :                2.2300
             k(d)              :                2.2300
             k(f)              :                2.0000
             kEN (H0ij)        :               -2.0000
             D4 a1             :                0.5200
             D4 a2             :                5.0000
             D4 s6             :                1.0000
             D4 s8             :                2.7000
             D4 s9             :                5.0000
             alphaj            :                2.0000

  Z AO/shell   Hii/eV     exponent
  1     Wed Apr 25 08:07:45 CEST 2018   EN: 2.200 GM2: 0.406  GM3: 0.0800  RAES: 1.40
     1s    -10.707211    1.230000
  6     Wed Apr 25 08:07:45 CEST 2018   EN: 2.550 GM2: 0.538  GM3: 0.1500  RAES: 3.00
     2s    -13.970922    2.096432
     2p    -10.063292    1.800000
  7     Wed Apr 25 08:07:45 CEST 2018   EN: 3.040 GM2: 0.461  GM3:-0.0640  RAES: 1.90
     2s    -16.686243    2.339881
     2p    -12.523956    2.014332
  8     Wed Apr 25 08:07:45 CEST 2018   EN: 3.440 GM2: 0.452  GM3:-0.0517  RAES: 1.80
     2s    -20.229985    2.439742
     2p    -15.503117    2.137023


            Z     q(EN)     CN     RAES       Cart. coordinates
     1  N   5.0   -0.46    2.00    1.90    -1.43513     1.15080    -0.72973
     2  C   4.0    0.30    3.02    3.02    -0.44538    -0.92199    -0.05906
     3  N   5.0   -0.05    2.36    1.90    -1.53430    -3.33940    -0.69756
     4  N   5.0   -0.18    1.00    1.90    -3.43046    -4.33269    -0.93064
     5  O   6.0   -0.05    1.36    1.80     1.34374    -5.24522    -0.06684
     6  N   5.0   -0.18    2.02    1.90     2.77337    -3.66596     1.02177
     7  C   4.0    0.12    3.04    3.02     1.94303    -1.34539     1.17097
     8  H   1.0    0.33    1.00    1.43    -3.07940     1.07476    -1.74940
     9  H   1.0    0.17    0.99    1.43     3.01663     0.12368     2.09913

           ------------------------------------------------- 
          |        Self-Consistent Charge Iterations        |
           ------------------------------------------------- 
q/qsh data taken from xtbrestart
CAMM data taken from xtbrestart

          ...................................................
          :                      SETUP                      :
          :.................................................:
          :  # basis functions                  30          :
          :  # atomic orbitals                  30          :
          :  # shells                           16          :
          :  # electrons                        36          :
          :  max. iterations                   250          :
          :  Hamiltonian                  GFN2-xTB          :
          :  restarted?                       true          :
          :  GBSA solvation                  false          :
          :  PC potential                    false          :
          :  electronic temp.          300.0000000     K    :
          :  accuracy                    0.2000000          :
          :  -> integral cutoff          0.3198970E+02      :
          :  -> integral neglect         0.2000000E-08      :
          :  -> SCF convergence          0.2000000E-06 Eh   :
          :  -> wf. convergence          0.2000000E-04 e    :
          :  Broyden damping             0.4000000          :
          ...................................................

 iter      E             dE          RMSdq      gap      omega  full diag
   1    -21.0694645 -0.210695E+02  0.255E+00    0.68       0.0  T
   2    -21.0681621  0.130237E-02  0.183E+00    1.04       1.0  T
   3    -21.0756228 -0.746075E-02  0.111E+00    0.64       1.0  T
   4    -21.0822959 -0.667308E-02  0.199E-01    0.74       1.0  T
   5    -21.0824735 -0.177554E-03  0.857E-02    0.74       1.0  T
   6    -21.0824839 -0.104743E-04  0.270E-02    0.73       1.2  T
   7    -21.0824860 -0.210284E-05  0.900E-03    0.73       3.7  T
   8    -21.0824863 -0.225122E-06  0.459E-03    0.73       7.3  T
   9    -21.0824863 -0.534527E-07  0.140E-03    0.73      23.8  T
  10    -21.0824863 -0.101824E-07  0.548E-04    0.73      60.8  T
  11    -21.0824863 -0.507537E-09  0.235E-04    0.73     141.6  T
  12    -21.0824863 -0.157449E-09  0.473E-05    0.73     704.2  T
  13    -21.0824863 -0.157385E-11  0.108E-05    0.73    3090.2  T

   *** convergence criteria satisfied after 13 iterations ***

         #    Occupation            Energy/Eh            Energy/eV
      -------------------------------------------------------------
         1        2.0000           -0.7552327             -20.5509
       ...           ...                  ...                  ...
        12        2.0000           -0.5408773             -14.7180
        13        2.0000           -0.5291637             -14.3993
        14        2.0000           -0.5024948             -13.6736
        15        2.0000           -0.4984181             -13.5626
        16        2.0000           -0.4546992             -12.3730
        17        2.0000           -0.4357023             -11.8561
        18        2.0000           -0.3973666             -10.8129 (HOMO)
        19        0.0000           -0.3705741             -10.0838 (LUMO)
        20                         -0.2995104              -8.1501
        21                         -0.2935070              -7.9867
        22                         -0.2091726              -5.6919
        23                         -0.0112078              -0.3050
       ...                                ...                  ...
        30                          0.7097159              19.3124
      -------------------------------------------------------------
                  HL-Gap            0.0267925 Eh            0.7291 eV
             Fermi-level           -0.3839703 Eh          -10.4484 eV

 SCC (total)                   0 d,  0 h,  0 min,  0.007 sec
 SCC setup                      ...        0 min,  0.000 sec (  1.752%)
 Dispersion                     ...        0 min,  0.000 sec (  0.781%)
 integral evaluation            ...        0 min,  0.001 sec ( 14.649%)
 zeroth order Hamiltonian       ...        0 min,  0.000 sec (  0.412%)
 iterations                     ...        0 min,  0.004 sec ( 53.072%)
 molecular gradient             ...        0 min,  0.002 sec ( 26.685%)
 printout                       ...        0 min,  0.000 sec (  2.193%)

         :::::::::::::::::::::::::::::::::::::::::::::::::::::
         ::                     SUMMARY                     ::
         :::::::::::::::::::::::::::::::::::::::::::::::::::::
         :: total energy              -20.862196823559 Eh   ::
         :: gradient norm               0.035055028216 Eh/α ::
         :: HOMO-LUMO gap               0.729060890277 eV   ::
         ::.................................................::
         :: SCC energy                -21.082486338761 Eh   ::
         :: -> isotropic ES             0.028190548590 Eh   ::
         :: -> anisotropic ES           0.003153239138 Eh   ::
         :: -> anisotropic XC           0.030574317465 Eh   ::
         :: -> dispersion              -0.006055203804 Eh   ::
         :: repulsion energy            0.220286011390 Eh   ::
         :: add. restraining            0.000000000000 Eh   ::
         :::::::::::::::::::::::::::::::::::::::::::::::::::::

           -------------------------------------------------
          |                Property Printout                |
           -------------------------------------------------

    * Orbital Energies and Occupations

         #    Occupation            Energy/Eh            Energy/eV
      -------------------------------------------------------------
         1        2.0000           -0.7552327             -20.5509
       ...           ...                  ...                  ...
         6        2.0000           -0.6500897             -17.6898
         7        2.0000           -0.6259736             -17.0336
         8        2.0000           -0.6115155             -16.6402
         9        2.0000           -0.5826354             -15.8543
        10        2.0000           -0.5768533             -15.6970
        11        2.0000           -0.5520021             -15.0207
        12        2.0000           -0.5408773             -14.7180
        13        2.0000           -0.5291637             -14.3993
        14        2.0000           -0.5024948             -13.6736
        15        2.0000           -0.4984181             -13.5626
        16        2.0000           -0.4546992             -12.3730
        17        2.0000           -0.4357023             -11.8561
        18        2.0000           -0.3973666             -10.8129 (HOMO)
        19        0.0000           -0.3705741             -10.0838 (LUMO)
        20                         -0.2995104              -8.1501
        21                         -0.2935070              -7.9867
        22                         -0.2091726              -5.6919
        23                         -0.0112078              -0.3050
        24                          0.0409321               1.1138
        25                          0.0890138               2.4222
        26                          0.2063806               5.6159
        27                          0.3001814               8.1684
        28                          0.3841463              10.4532
        29                          0.5265640              14.3285
        30                          0.7097159              19.3124
      -------------------------------------------------------------
                  HL-Gap            0.0267925 Eh            0.7291 eV
             Fermi-level           -0.3839703 Eh          -10.4484 eV

   #   Z        covCN         q      C6AA      α(0)
   1   7 N      1.776    -0.274    27.925     7.826
   2   6 C      2.823     0.165    24.435     8.100
   3   7 N      2.220     0.209    18.099     6.314
   4   7 N      0.984    -0.115    23.137     6.918
   5   8 O      1.254    -0.278    19.144     5.879
   6   7 N      1.855     0.037    21.270     6.836
   7   6 C      2.852    -0.004    28.115     8.691
   8   1 H      0.859     0.175     1.241     1.745
   9   1 H      0.926     0.085     1.933     2.174

 Mol. C6AA /au·bohr⁶  :       1297.428481
 Mol. C8AA /au·bohr⁸  :      29656.282474
 Mol. α(0) /au        :         54.482121


Wiberg/Mayer (AO) data.
largest (>0.10) Wiberg bond orders for each atom
          total WBO             WBO to atom ...
     1  N   3.108        C    2 1.777    H    8 0.937    N    4 0.114
     2  C   3.949        N    1 1.777    C    7 1.128    N    3 0.923
     3  N   3.771        N    4 2.327    C    2 0.923    O    5 0.345
     4  N   2.856        N    3 2.327    O    5 0.262    N    1 0.114
     5  O   2.266        N    6 1.334    N    3 0.345    N    4 0.262    C    7 0.182
     6  N   3.223        C    7 1.596    O    5 1.334
     7  C   3.965        N    6 1.596    C    2 1.128    H    9 0.958    O    5 0.182
     8  H   0.969        N    1 0.937
     9  H   0.993        C    7 0.958

molecular dipole:
                 x           y           z       tot (Debye)
 q only:       -0.171       0.861       0.074
   full:       -0.351       0.881      -0.036       2.412
molecular quadrupole (traceless):
                xx          xy          yy          xz          yz          zz
 q only:        3.914       1.392      -7.815       1.763      -0.413       3.900
  q+dip:        4.080       1.333     -10.229       1.702      -0.406       6.149
   full:        3.382       1.195     -11.103       0.643      -0.541       7.721


           -------------------------------------------------
          | TOTAL ENERGY              -20.862196823559 Eh   |
          | GRADIENT NORM               0.035055028216 Eh/α |
          | HOMO-LUMO GAP               0.729060890277 eV   |
           -------------------------------------------------

------------------------------------------------------------------------
 * finished run on 2021/06/02 at 10:00:07.006     
------------------------------------------------------------------------
 total:
 * wall-time:     0 d,  0 h,  0 min,  0.015 sec
 *  cpu-time:     0 d,  0 h,  0 min,  0.015 sec
 * ratio c/w:     0.987 speedup
 SCF:
 * wall-time:     0 d,  0 h,  0 min,  0.007 sec
 *  cpu-time:     0 d,  0 h,  0 min,  0.007 sec
 * ratio c/w:     0.999 speedup

