      -----------------------------------------------------------      
     |                   =====================                   |     
     |                           x T B                           |     
     |                   =====================                   |     
     |                         S. Grimme                         |     
     |          Mulliken Center for Theoretical Chemistry        |     
     |                    University of Bonn                     |     
     |                 Version 6.1.4 (SAW190525)                 |     
      -----------------------------------------------------------      

   This program is distributed in the hope that it will be useful,
   but WITHOUT ANY WARRANTY; without even the implied warranty of
   MERCHANTABILITY or FITNESS FOR A PARTICULAR PURPOSE.
   
   FOR NON-COMMERCIAL, ACADEMIA USE ONLY.
   
   Cite this work as:
   S. Grimme, C. Bannwarth, P. Shushkov, J. Comput. Theory Chem., 2017,
   13, 1989-2009. DOI: 10.1021/acs.jctc.7b00118
   C. Bannwarth, S. Ehlert and S. Grimme., J. Comput. Theory Chem., 2019,
   just accepted. DOI: 10.1021/acs.jctc.8b01176
   
   for sTDA-xTB:
   S. Grimme and C. Bannwarth, J. Chem. Phys., 2016, 145, 054103.
   DOI: 10.1063/1.4959605
   
   in the mass-spec context:
   V. Asgeirsson, C. Bauer and S. Grimme, Chem. Sci., 2017, 8, 4879.
   DOI: 10.1039/c7sc00601b
   
   for metadynamics refer to:
   S. Grimme, J. Chem. Theory Comput. Article ASAP, 2019,
   DOI: 10.1021/acs.jctc.9b00143
   
   with help from (in alphabetical order)
   C. Bannwarth, F. Bohle, G. Brandenburg, E. Caldeweyher, M. Checinski,
   S. Dohm, S. Ehlert, S. Ehrlich, F. März, H. Neugebauer, J. Pisarek,
   P. Pracht, P. Shushkov, and S. Spicher.
   
 * started run on 2021/06/02 at 10:00:06.529     

           -------------------------------------------------
          |                Calculation Setup                |
           -------------------------------------------------

          program call               : /groups/kemi/koerstz/opt/xtb/6.1/bin/xtb 13.xyz --gfn2 --acc 0.2 --chrg 0
          hostname                   : node305
          coordinate file            : 13.xyz
          omp threads                :                     1
          number of atoms            :                     9
          number of electrons        :                    36
          charge                     :                     0
          spin                       :                   0.0
          first test random number   :      0.31396375535378


########################################################################
# WARNING! Please study the warnings concerning your input carefully
#  - XTBPATH is not set, using XTBHOME instead
########################################################################

           ------------------------------------------------- 
          |                 G F N 2 - x T B                 |
          | Geometry, Frequencies, Noncovalent interactions |
          |            JCTC 2018 parametrisation            |
           ------------------------------------------------- 
             k(s)              :                1.8500
             k(p)              :                2.2300
             k(d)              :                2.2300
             k(f)              :                2.0000
             kEN (H0ij)        :               -2.0000
             D4 a1             :                0.5200
             D4 a2             :                5.0000
             D4 s6             :                1.0000
             D4 s8             :                2.7000
             D4 s9             :                5.0000
             alphaj            :                2.0000

  Z AO/shell   Hii/eV     exponent
  1     Wed Apr 25 08:07:45 CEST 2018   EN: 2.200 GM2: 0.406  GM3: 0.0800  RAES: 1.40
     1s    -10.707211    1.230000
  6     Wed Apr 25 08:07:45 CEST 2018   EN: 2.550 GM2: 0.538  GM3: 0.1500  RAES: 3.00
     2s    -13.970922    2.096432
     2p    -10.063292    1.800000
  7     Wed Apr 25 08:07:45 CEST 2018   EN: 3.040 GM2: 0.461  GM3:-0.0640  RAES: 1.90
     2s    -16.686243    2.339881
     2p    -12.523956    2.014332
  8     Wed Apr 25 08:07:45 CEST 2018   EN: 3.440 GM2: 0.452  GM3:-0.0517  RAES: 1.80
     2s    -20.229985    2.439742
     2p    -15.503117    2.137023


            Z     q(EN)     CN     RAES       Cart. coordinates
     1  N   5.0   -0.46    2.00    1.90    -1.41896     1.15315    -0.75857
     2  C   4.0    0.30    3.02    3.02    -0.44969    -0.92171    -0.06494
     3  N   5.0   -0.05    2.33    1.90    -1.55029    -3.34124    -0.67517
     4  N   5.0   -0.18    1.00    1.90    -3.44826    -4.34549    -0.83823
     5  O   6.0   -0.05    1.34    1.80     1.38605    -5.23008    -0.16997
     6  N   5.0   -0.18    2.03    1.90     2.76854    -3.65372     1.00485
     7  C   4.0    0.12    3.03    3.02     1.92922    -1.35105     1.17424
     8  H   1.0    0.33    1.00    1.43    -3.05192     1.07725    -1.77547
     9  H   1.0    0.17    0.99    1.43     2.98743     0.11148     2.16189

           ------------------------------------------------- 
          |        Self-Consistent Charge Iterations        |
           ------------------------------------------------- 
q/qsh data taken from xtbrestart
CAMM data taken from xtbrestart

          ...................................................
          :                      SETUP                      :
          :.................................................:
          :  # basis functions                  30          :
          :  # atomic orbitals                  30          :
          :  # shells                           16          :
          :  # electrons                        36          :
          :  max. iterations                   250          :
          :  Hamiltonian                  GFN2-xTB          :
          :  restarted?                       true          :
          :  GBSA solvation                  false          :
          :  PC potential                    false          :
          :  electronic temp.          300.0000000     K    :
          :  accuracy                    0.2000000          :
          :  -> integral cutoff          0.3198970E+02      :
          :  -> integral neglect         0.2000000E-08      :
          :  -> SCF convergence          0.2000000E-06 Eh   :
          :  -> wf. convergence          0.2000000E-04 e    :
          :  Broyden damping             0.4000000          :
          ...................................................

 iter      E             dE          RMSdq      gap      omega  full diag
   1    -21.0059980 -0.210060E+02  0.630E+00    1.81       0.0  T
   2    -21.0521919 -0.461939E-01  0.359E+00    0.85       1.0  T
   3    -21.0627462 -0.105543E-01  0.239E+00    1.20       1.0  T
   4    -21.0767562 -0.140099E-01  0.823E-01    0.65       1.0  T
   5    -21.0818873 -0.513116E-02  0.339E-01    0.77       1.0  T
   6    -21.0824876 -0.600294E-03  0.130E-01    0.72       1.0  T
   7    -21.0825042 -0.165361E-04  0.489E-02    0.73       1.0  T
   8    -21.0825177 -0.135093E-04  0.151E-02    0.73       2.2  T
   9    -21.0825177 -0.212538E-07  0.765E-03    0.73       4.4  T
  10    -21.0825180 -0.279315E-06  0.239E-03    0.73      13.9  T
  11    -21.0825180 -0.111899E-07  0.108E-03    0.73      30.9  T
  12    -21.0825180 -0.148114E-08  0.196E-04    0.73     170.5  T
  13    -21.0825180 -0.325606E-10  0.956E-05    0.73     348.6  T

   *** convergence criteria satisfied after 13 iterations ***

         #    Occupation            Energy/Eh            Energy/eV
      -------------------------------------------------------------
         1        2.0000           -0.7536110             -20.5068
       ...           ...                  ...                  ...
        12        2.0000           -0.5412019             -14.7269
        13        2.0000           -0.5291568             -14.3991
        14        2.0000           -0.5030675             -13.6892
        15        2.0000           -0.4977665             -13.5449
        16        2.0000           -0.4553004             -12.3894
        17        2.0000           -0.4362769             -11.8717
        18        2.0000           -0.3972394             -10.8094 (HOMO)
        19        0.0000           -0.3705458             -10.0831 (LUMO)
        20                         -0.3004323              -8.1752
        21                         -0.2960029              -8.0546
        22                         -0.2097077              -5.7064
        23                         -0.0114638              -0.3119
       ...                                ...                  ...
        30                          0.7084001              19.2765
      -------------------------------------------------------------
                  HL-Gap            0.0266937 Eh            0.7264 eV
             Fermi-level           -0.3838926 Eh          -10.4462 eV

 SCC (total)                   0 d,  0 h,  0 min,  0.007 sec
 SCC setup                      ...        0 min,  0.000 sec (  1.796%)
 Dispersion                     ...        0 min,  0.000 sec (  0.791%)
 integral evaluation            ...        0 min,  0.001 sec ( 14.745%)
 zeroth order Hamiltonian       ...        0 min,  0.000 sec (  0.428%)
 iterations                     ...        0 min,  0.004 sec ( 52.695%)
 molecular gradient             ...        0 min,  0.002 sec ( 26.824%)
 printout                       ...        0 min,  0.000 sec (  2.254%)

         :::::::::::::::::::::::::::::::::::::::::::::::::::::
         ::                     SUMMARY                     ::
         :::::::::::::::::::::::::::::::::::::::::::::::::::::
         :: total energy              -20.861219516438 Eh   ::
         :: gradient norm               0.035022163398 Eh/α ::
         :: HOMO-LUMO gap               0.726371268645 eV   ::
         ::.................................................::
         :: SCC energy                -21.082517984587 Eh   ::
         :: -> isotropic ES             0.028830679698 Eh   ::
         :: -> anisotropic ES           0.003042420610 Eh   ::
         :: -> anisotropic XC           0.030675751298 Eh   ::
         :: -> dispersion              -0.006059393357 Eh   ::
         :: repulsion energy            0.221294895532 Eh   ::
         :: add. restraining            0.000000000000 Eh   ::
         :::::::::::::::::::::::::::::::::::::::::::::::::::::

           -------------------------------------------------
          |                Property Printout                |
           -------------------------------------------------

    * Orbital Energies and Occupations

         #    Occupation            Energy/Eh            Energy/eV
      -------------------------------------------------------------
         1        2.0000           -0.7536110             -20.5068
       ...           ...                  ...                  ...
         6        2.0000           -0.6490975             -17.6628
         7        2.0000           -0.6264843             -17.0475
         8        2.0000           -0.6113821             -16.6366
         9        2.0000           -0.5831105             -15.8672
        10        2.0000           -0.5756511             -15.6643
        11        2.0000           -0.5526841             -15.0393
        12        2.0000           -0.5412019             -14.7269
        13        2.0000           -0.5291568             -14.3991
        14        2.0000           -0.5030675             -13.6892
        15        2.0000           -0.4977665             -13.5449
        16        2.0000           -0.4553004             -12.3894
        17        2.0000           -0.4362769             -11.8717
        18        2.0000           -0.3972394             -10.8094 (HOMO)
        19        0.0000           -0.3705458             -10.0831 (LUMO)
        20                         -0.3004323              -8.1752
        21                         -0.2960029              -8.0546
        22                         -0.2097077              -5.7064
        23                         -0.0114638              -0.3119
        24                          0.0458427               1.2474
        25                          0.0797220               2.1693
        26                          0.2034651               5.5366
        27                          0.3018116               8.2127
        28                          0.3909013              10.6370
        29                          0.5287210              14.3872
        30                          0.7084001              19.2765
      -------------------------------------------------------------
                  HL-Gap            0.0266937 Eh            0.7264 eV
             Fermi-level           -0.3838926 Eh          -10.4462 eV

   #   Z        covCN         q      C6AA      α(0)
   1   7 N      1.777    -0.274    27.930     7.826
   2   6 C      2.824     0.166    24.414     8.096
   3   7 N      2.201     0.208    18.136     6.320
   4   7 N      0.984    -0.112    23.078     6.910
   5   8 O      1.233    -0.284    19.265     5.897
   6   7 N      1.857     0.036    21.292     6.839
   7   6 C      2.852    -0.001    28.049     8.680
   8   1 H      0.860     0.176     1.237     1.742
   9   1 H      0.925     0.085     1.933     2.174

 Mol. C6AA /au·bohr⁶  :       1297.748878
 Mol. C8AA /au·bohr⁸  :      29661.319773
 Mol. α(0) /au        :         54.484222


Wiberg/Mayer (AO) data.
largest (>0.10) Wiberg bond orders for each atom
          total WBO             WBO to atom ...
     1  N   3.108        C    2 1.781    H    8 0.938    N    4 0.110
     2  C   3.949        N    1 1.781    C    7 1.124    N    3 0.923
     3  N   3.770        N    4 2.332    C    2 0.923    O    5 0.340
     4  N   2.861        N    3 2.332    O    5 0.264    N    1 0.110
     5  O   2.255        N    6 1.328    N    3 0.340    N    4 0.264    C    7 0.179
     6  N   3.223        C    7 1.604    O    5 1.328
     7  C   3.965        N    6 1.604    C    2 1.124    H    9 0.957    O    5 0.179
     8  H   0.969        N    1 0.938
     9  H   0.993        C    7 0.957

molecular dipole:
                 x           y           z       tot (Debye)
 q only:       -0.203       0.875       0.103
   full:       -0.389       0.895      -0.007       2.480
molecular quadrupole (traceless):
                xx          xy          yy          xz          yz          zz
 q only:        3.898       1.595      -7.896       1.902      -0.580       3.997
  q+dip:        4.045       1.555     -10.308       1.911      -0.522       6.263
   full:        3.362       1.399     -11.187       0.896      -0.646       7.824


           -------------------------------------------------
          | TOTAL ENERGY              -20.861219516438 Eh   |
          | GRADIENT NORM               0.035022163398 Eh/α |
          | HOMO-LUMO GAP               0.726371268645 eV   |
           -------------------------------------------------

------------------------------------------------------------------------
 * finished run on 2021/06/02 at 10:00:06.544     
------------------------------------------------------------------------
 total:
 * wall-time:     0 d,  0 h,  0 min,  0.014 sec
 *  cpu-time:     0 d,  0 h,  0 min,  0.014 sec
 * ratio c/w:     0.986 speedup
 SCF:
 * wall-time:     0 d,  0 h,  0 min,  0.007 sec
 *  cpu-time:     0 d,  0 h,  0 min,  0.007 sec
 * ratio c/w:     1.000 speedup

