      -----------------------------------------------------------      
     |                   =====================                   |     
     |                           x T B                           |     
     |                   =====================                   |     
     |                         S. Grimme                         |     
     |          Mulliken Center for Theoretical Chemistry        |     
     |                    University of Bonn                     |     
     |                 Version 6.1.4 (SAW190525)                 |     
      -----------------------------------------------------------      

   This program is distributed in the hope that it will be useful,
   but WITHOUT ANY WARRANTY; without even the implied warranty of
   MERCHANTABILITY or FITNESS FOR A PARTICULAR PURPOSE.
   
   FOR NON-COMMERCIAL, ACADEMIA USE ONLY.
   
   Cite this work as:
   S. Grimme, C. Bannwarth, P. Shushkov, J. Comput. Theory Chem., 2017,
   13, 1989-2009. DOI: 10.1021/acs.jctc.7b00118
   C. Bannwarth, S. Ehlert and S. Grimme., J. Comput. Theory Chem., 2019,
   just accepted. DOI: 10.1021/acs.jctc.8b01176
   
   for sTDA-xTB:
   S. Grimme and C. Bannwarth, J. Chem. Phys., 2016, 145, 054103.
   DOI: 10.1063/1.4959605
   
   in the mass-spec context:
   V. Asgeirsson, C. Bauer and S. Grimme, Chem. Sci., 2017, 8, 4879.
   DOI: 10.1039/c7sc00601b
   
   for metadynamics refer to:
   S. Grimme, J. Chem. Theory Comput. Article ASAP, 2019,
   DOI: 10.1021/acs.jctc.9b00143
   
   with help from (in alphabetical order)
   C. Bannwarth, F. Bohle, G. Brandenburg, E. Caldeweyher, M. Checinski,
   S. Dohm, S. Ehlert, S. Ehrlich, F. März, H. Neugebauer, J. Pisarek,
   P. Pracht, P. Shushkov, and S. Spicher.
   
 * started run on 2021/06/02 at 10:00:07.152     

           -------------------------------------------------
          |                Calculation Setup                |
           -------------------------------------------------

          program call               : /groups/kemi/koerstz/opt/xtb/6.1/bin/xtb 14.xyz --gfn2 --acc 0.2 --chrg 0
          hostname                   : node305
          coordinate file            : 14.xyz
          omp threads                :                     1
          number of atoms            :                     9
          number of electrons        :                    36
          charge                     :                     0
          spin                       :                   0.0
          first test random number   :      0.56083794854173


########################################################################
# WARNING! Please study the warnings concerning your input carefully
#  - XTBPATH is not set, using XTBHOME instead
########################################################################

           ------------------------------------------------- 
          |                 G F N 2 - x T B                 |
          | Geometry, Frequencies, Noncovalent interactions |
          |            JCTC 2018 parametrisation            |
           ------------------------------------------------- 
             k(s)              :                1.8500
             k(p)              :                2.2300
             k(d)              :                2.2300
             k(f)              :                2.0000
             kEN (H0ij)        :               -2.0000
             D4 a1             :                0.5200
             D4 a2             :                5.0000
             D4 s6             :                1.0000
             D4 s8             :                2.7000
             D4 s9             :                5.0000
             alphaj            :                2.0000

  Z AO/shell   Hii/eV     exponent
  1     Wed Apr 25 08:07:45 CEST 2018   EN: 2.200 GM2: 0.406  GM3: 0.0800  RAES: 1.40
     1s    -10.707211    1.230000
  6     Wed Apr 25 08:07:45 CEST 2018   EN: 2.550 GM2: 0.538  GM3: 0.1500  RAES: 3.00
     2s    -13.970922    2.096432
     2p    -10.063292    1.800000
  7     Wed Apr 25 08:07:45 CEST 2018   EN: 3.040 GM2: 0.461  GM3:-0.0640  RAES: 1.90
     2s    -16.686243    2.339881
     2p    -12.523956    2.014332
  8     Wed Apr 25 08:07:45 CEST 2018   EN: 3.440 GM2: 0.452  GM3:-0.0517  RAES: 1.80
     2s    -20.229985    2.439742
     2p    -15.503117    2.137023


            Z     q(EN)     CN     RAES       Cart. coordinates
     1  N   5.0   -0.46    2.00    1.90    -1.38447     1.16095    -0.81875
     2  C   4.0    0.30    3.02    3.02    -0.47128    -0.91341    -0.04939
     3  N   5.0   -0.06    2.33    1.90    -1.58130    -3.33821    -0.63065
     4  N   5.0   -0.17    1.00    1.90    -3.45453    -4.40059    -0.65743
     5  O   6.0   -0.05    1.33    1.80     1.41750    -5.17644    -0.31853
     6  N   5.0   -0.18    2.02    1.90     2.79389    -3.63923     0.91341
     7  C   4.0    0.12    3.04    3.02     1.90253    -1.36326     1.21112
     8  H   1.0    0.33    1.00    1.43    -2.99290     1.09912    -1.86580
     9  H   1.0    0.17    0.99    1.43     2.92268     0.06967     2.27466

           ------------------------------------------------- 
          |        Self-Consistent Charge Iterations        |
           ------------------------------------------------- 
q/qsh data taken from xtbrestart
CAMM data taken from xtbrestart

          ...................................................
          :                      SETUP                      :
          :.................................................:
          :  # basis functions                  30          :
          :  # atomic orbitals                  30          :
          :  # shells                           16          :
          :  # electrons                        36          :
          :  max. iterations                   250          :
          :  Hamiltonian                  GFN2-xTB          :
          :  restarted?                       true          :
          :  GBSA solvation                  false          :
          :  PC potential                    false          :
          :  electronic temp.          300.0000000     K    :
          :  accuracy                    0.2000000          :
          :  -> integral cutoff          0.3198970E+02      :
          :  -> integral neglect         0.2000000E-08      :
          :  -> SCF convergence          0.2000000E-06 Eh   :
          :  -> wf. convergence          0.2000000E-04 e    :
          :  Broyden damping             0.4000000          :
          ...................................................

 iter      E             dE          RMSdq      gap      omega  full diag
   1    -20.9694086 -0.209694E+02  0.656E+00    1.42       0.0  T
   2    -21.0416828 -0.722742E-01  0.400E+00    0.92       1.0  T
   3    -21.0684973 -0.268145E-01  0.225E+00    0.96       1.0  T
   4    -21.0776429 -0.914558E-02  0.598E-01    0.75       1.0  T
   5    -21.0786729 -0.102995E-02  0.184E-01    0.72       1.0  T
   6    -21.0786908 -0.179028E-04  0.984E-02    0.73       1.0  T
   7    -21.0787217 -0.308938E-04  0.305E-02    0.73       1.1  T
   8    -21.0787235 -0.185183E-05  0.174E-02    0.72       1.9  T
   9    -21.0787241 -0.552744E-06  0.103E-02    0.73       3.2  T
  10    -21.0787248 -0.714669E-06  0.364E-03    0.73       9.2  T
  11    -21.0787248 -0.608497E-07  0.142E-03    0.73      23.5  T
  12    -21.0787248 -0.221346E-08  0.284E-04    0.73     117.3  T
  13    -21.0787248 -0.248850E-09  0.127E-04    0.73     261.6  T
  14    -21.0787248 -0.451266E-10  0.325E-05    0.73    1024.1  T

   *** convergence criteria satisfied after 14 iterations ***

         #    Occupation            Energy/Eh            Energy/eV
      -------------------------------------------------------------
         1        2.0000           -0.7530709             -20.4921
       ...           ...                  ...                  ...
        12        2.0000           -0.5411242             -14.7247
        13        2.0000           -0.5282782             -14.3752
        14        2.0000           -0.5039985             -13.7145
        15        2.0000           -0.4973821             -13.5345
        16        2.0000           -0.4550145             -12.3816
        17        2.0000           -0.4351901             -11.8421
        18        2.0000           -0.3967976             -10.7974 (HOMO)
        19        0.0000           -0.3700845             -10.0705 (LUMO)
        20                         -0.3001202              -8.1667
        21                         -0.2972982              -8.0899
        22                         -0.2144475              -5.8354
        23                         -0.0126240              -0.3435
       ...                                ...                  ...
        30                          0.7045303              19.1712
      -------------------------------------------------------------
                  HL-Gap            0.0267131 Eh            0.7269 eV
             Fermi-level           -0.3834410 Eh          -10.4340 eV

 SCC (total)                   0 d,  0 h,  0 min,  0.007 sec
 SCC setup                      ...        0 min,  0.000 sec (  1.401%)
 Dispersion                     ...        0 min,  0.000 sec (  0.810%)
 integral evaluation            ...        0 min,  0.001 sec ( 14.647%)
 zeroth order Hamiltonian       ...        0 min,  0.000 sec (  0.301%)
 iterations                     ...        0 min,  0.004 sec ( 53.103%)
 molecular gradient             ...        0 min,  0.002 sec ( 27.020%)
 printout                       ...        0 min,  0.000 sec (  2.300%)

         :::::::::::::::::::::::::::::::::::::::::::::::::::::
         ::                     SUMMARY                     ::
         :::::::::::::::::::::::::::::::::::::::::::::::::::::
         :: total energy              -20.858585482923 Eh   ::
         :: gradient norm               0.038078292507 Eh/α ::
         :: HOMO-LUMO gap               0.726900267035 eV   ::
         ::.................................................::
         :: SCC energy                -21.078724843914 Eh   ::
         :: -> isotropic ES             0.029149566715 Eh   ::
         :: -> anisotropic ES           0.002981254514 Eh   ::
         :: -> anisotropic XC           0.030977918839 Eh   ::
         :: -> dispersion              -0.006064625340 Eh   ::
         :: repulsion energy            0.220135623062 Eh   ::
         :: add. restraining            0.000000000000 Eh   ::
         :::::::::::::::::::::::::::::::::::::::::::::::::::::

           -------------------------------------------------
          |                Property Printout                |
           -------------------------------------------------

    * Orbital Energies and Occupations

         #    Occupation            Energy/Eh            Energy/eV
      -------------------------------------------------------------
         1        2.0000           -0.7530709             -20.4921
       ...           ...                  ...                  ...
         6        2.0000           -0.6485620             -17.6483
         7        2.0000           -0.6271825             -17.0665
         8        2.0000           -0.6105968             -16.6152
         9        2.0000           -0.5831401             -15.8681
        10        2.0000           -0.5750144             -15.6469
        11        2.0000           -0.5526154             -15.0374
        12        2.0000           -0.5411242             -14.7247
        13        2.0000           -0.5282782             -14.3752
        14        2.0000           -0.5039985             -13.7145
        15        2.0000           -0.4973821             -13.5345
        16        2.0000           -0.4550145             -12.3816
        17        2.0000           -0.4351901             -11.8421
        18        2.0000           -0.3967976             -10.7974 (HOMO)
        19        0.0000           -0.3700845             -10.0705 (LUMO)
        20                         -0.3001202              -8.1667
        21                         -0.2972982              -8.0899
        22                         -0.2144475              -5.8354
        23                         -0.0126240              -0.3435
        24                          0.0457020               1.2436
        25                          0.0806402               2.1943
        26                          0.2012736               5.4769
        27                          0.3036274               8.2621
        28                          0.3828775              10.4186
        29                          0.5280763              14.3697
        30                          0.7045303              19.1712
      -------------------------------------------------------------
                  HL-Gap            0.0267131 Eh            0.7269 eV
             Fermi-level           -0.3834410 Eh          -10.4340 eV

   #   Z        covCN         q      C6AA      α(0)
   1   7 N      1.776    -0.274    27.931     7.826
   2   6 C      2.823     0.167    24.397     8.093
   3   7 N      2.198     0.208    18.144     6.321
   4   7 N      0.984    -0.109    23.019     6.901
   5   8 O      1.230    -0.286    19.308     5.903
   6   7 N      1.856     0.035    21.315     6.843
   7   6 C      2.853    -0.001    28.057     8.682
   8   1 H      0.860     0.177     1.234     1.740
   9   1 H      0.925     0.084     1.934     2.175

 Mol. C6AA /au·bohr⁶  :       1297.791355
 Mol. C8AA /au·bohr⁸  :      29662.044142
 Mol. α(0) /au        :         54.484278


Wiberg/Mayer (AO) data.
largest (>0.10) Wiberg bond orders for each atom
          total WBO             WBO to atom ...
     1  N   3.108        C    2 1.790    H    8 0.938    N    4 0.103
     2  C   3.948        N    1 1.790    C    7 1.116    N    3 0.920
     3  N   3.770        N    4 2.336    C    2 0.920    O    5 0.338
     4  N   2.866        N    3 2.336    O    5 0.264    N    1 0.103
     5  O   2.250        N    6 1.326    N    3 0.338    N    4 0.264    C    7 0.181
     6  N   3.218        C    7 1.604    O    5 1.326
     7  C   3.965        N    6 1.604    C    2 1.116    H    9 0.956    O    5 0.181
     8  H   0.969        N    1 0.938
     9  H   0.993        C    7 0.956

molecular dipole:
                 x           y           z       tot (Debye)
 q only:       -0.245       0.871       0.140
   full:       -0.443       0.897       0.031       2.545
molecular quadrupole (traceless):
                xx          xy          yy          xz          yz          zz
 q only:        3.781       1.710      -7.830       2.121      -0.813       4.049
  q+dip:        3.846       1.652     -10.298       2.306      -0.725       6.451
   full:        3.208       1.488     -11.175       1.381      -0.823       7.967


           -------------------------------------------------
          | TOTAL ENERGY              -20.858585482923 Eh   |
          | GRADIENT NORM               0.038078292507 Eh/α |
          | HOMO-LUMO GAP               0.726900267035 eV   |
           -------------------------------------------------

------------------------------------------------------------------------
 * finished run on 2021/06/02 at 10:00:07.168     
------------------------------------------------------------------------
 total:
 * wall-time:     0 d,  0 h,  0 min,  0.015 sec
 *  cpu-time:     0 d,  0 h,  0 min,  0.015 sec
 * ratio c/w:     0.985 speedup
 SCF:
 * wall-time:     0 d,  0 h,  0 min,  0.007 sec
 *  cpu-time:     0 d,  0 h,  0 min,  0.007 sec
 * ratio c/w:     1.000 speedup

