      -----------------------------------------------------------      
     |                   =====================                   |     
     |                           x T B                           |     
     |                   =====================                   |     
     |                         S. Grimme                         |     
     |          Mulliken Center for Theoretical Chemistry        |     
     |                    University of Bonn                     |     
     |                 Version 6.1.4 (SAW190525)                 |     
      -----------------------------------------------------------      

   This program is distributed in the hope that it will be useful,
   but WITHOUT ANY WARRANTY; without even the implied warranty of
   MERCHANTABILITY or FITNESS FOR A PARTICULAR PURPOSE.
   
   FOR NON-COMMERCIAL, ACADEMIA USE ONLY.
   
   Cite this work as:
   S. Grimme, C. Bannwarth, P. Shushkov, J. Comput. Theory Chem., 2017,
   13, 1989-2009. DOI: 10.1021/acs.jctc.7b00118
   C. Bannwarth, S. Ehlert and S. Grimme., J. Comput. Theory Chem., 2019,
   just accepted. DOI: 10.1021/acs.jctc.8b01176
   
   for sTDA-xTB:
   S. Grimme and C. Bannwarth, J. Chem. Phys., 2016, 145, 054103.
   DOI: 10.1063/1.4959605
   
   in the mass-spec context:
   V. Asgeirsson, C. Bauer and S. Grimme, Chem. Sci., 2017, 8, 4879.
   DOI: 10.1039/c7sc00601b
   
   for metadynamics refer to:
   S. Grimme, J. Chem. Theory Comput. Article ASAP, 2019,
   DOI: 10.1021/acs.jctc.9b00143
   
   with help from (in alphabetical order)
   C. Bannwarth, F. Bohle, G. Brandenburg, E. Caldeweyher, M. Checinski,
   S. Dohm, S. Ehlert, S. Ehrlich, F. März, H. Neugebauer, J. Pisarek,
   P. Pracht, P. Shushkov, and S. Spicher.
   
 * started run on 2021/06/02 at 10:00:06.389     

           -------------------------------------------------
          |                Calculation Setup                |
           -------------------------------------------------

          program call               : /groups/kemi/koerstz/opt/xtb/6.1/bin/xtb 15.xyz --gfn2 --acc 0.2 --chrg 0
          hostname                   : node305
          coordinate file            : 15.xyz
          omp threads                :                     1
          number of atoms            :                     9
          number of electrons        :                    36
          charge                     :                     0
          spin                       :                   0.0
          first test random number   :      0.94576359744645


########################################################################
# WARNING! Please study the warnings concerning your input carefully
#  - XTBPATH is not set, using XTBHOME instead
########################################################################

           ------------------------------------------------- 
          |                 G F N 2 - x T B                 |
          | Geometry, Frequencies, Noncovalent interactions |
          |            JCTC 2018 parametrisation            |
           ------------------------------------------------- 
             k(s)              :                1.8500
             k(p)              :                2.2300
             k(d)              :                2.2300
             k(f)              :                2.0000
             kEN (H0ij)        :               -2.0000
             D4 a1             :                0.5200
             D4 a2             :                5.0000
             D4 s6             :                1.0000
             D4 s8             :                2.7000
             D4 s9             :                5.0000
             alphaj            :                2.0000

  Z AO/shell   Hii/eV     exponent
  1     Wed Apr 25 08:07:45 CEST 2018   EN: 2.200 GM2: 0.406  GM3: 0.0800  RAES: 1.40
     1s    -10.707211    1.230000
  6     Wed Apr 25 08:07:45 CEST 2018   EN: 2.550 GM2: 0.538  GM3: 0.1500  RAES: 3.00
     2s    -13.970922    2.096432
     2p    -10.063292    1.800000
  7     Wed Apr 25 08:07:45 CEST 2018   EN: 3.040 GM2: 0.461  GM3:-0.0640  RAES: 1.90
     2s    -16.686243    2.339881
     2p    -12.523956    2.014332
  8     Wed Apr 25 08:07:45 CEST 2018   EN: 3.440 GM2: 0.452  GM3:-0.0517  RAES: 1.80
     2s    -20.229985    2.439742
     2p    -15.503117    2.137023


            Z     q(EN)     CN     RAES       Cart. coordinates
     1  N   5.0   -0.46    2.00    1.90    -1.36396     1.15841    -0.85921
     2  C   4.0    0.30    3.02    3.02    -0.49013    -0.90812    -0.01878
     3  N   5.0   -0.06    2.30    1.90    -1.60657    -3.33018    -0.61115
     4  N   5.0   -0.17    1.00    1.90    -3.45655    -4.42490    -0.56213
     5  O   6.0   -0.06    1.30    1.80     1.44936    -5.15335    -0.42498
     6  N   5.0   -0.18    2.02    1.90     2.81383    -3.64430     0.86623
     7  C   4.0    0.12    3.03    3.02     1.89252    -1.36641     1.24325
     8  H   1.0    0.33    1.00    1.43    -2.97513     1.11134    -1.90414
     9  H   1.0    0.17    0.99    1.43     2.88875     0.05609     2.32955

           ------------------------------------------------- 
          |        Self-Consistent Charge Iterations        |
           ------------------------------------------------- 
q/qsh data taken from xtbrestart
CAMM data taken from xtbrestart

          ...................................................
          :                      SETUP                      :
          :.................................................:
          :  # basis functions                  30          :
          :  # atomic orbitals                  30          :
          :  # shells                           16          :
          :  # electrons                        36          :
          :  max. iterations                   250          :
          :  Hamiltonian                  GFN2-xTB          :
          :  restarted?                       true          :
          :  GBSA solvation                  false          :
          :  PC potential                    false          :
          :  electronic temp.          300.0000000     K    :
          :  accuracy                    0.2000000          :
          :  -> integral cutoff          0.3198970E+02      :
          :  -> integral neglect         0.2000000E-08      :
          :  -> SCF convergence          0.2000000E-06 Eh   :
          :  -> wf. convergence          0.2000000E-04 e    :
          :  Broyden damping             0.4000000          :
          ...................................................

 iter      E             dE          RMSdq      gap      omega  full diag
   1    -20.9572805 -0.209573E+02  0.663E+00    1.49       0.0  T
   2    -21.0331127 -0.758323E-01  0.405E+00    0.88       1.0  T
   3    -21.0622751 -0.291623E-01  0.228E+00    1.01       1.0  T
   4    -21.0711337 -0.885867E-02  0.632E-01    0.70       1.0  T
   5    -21.0722047 -0.107095E-02  0.350E-01    0.77       1.0  T
   6    -21.0728907 -0.685982E-03  0.141E-01    0.71       1.0  T
   7    -21.0729334 -0.426796E-04  0.623E-02    0.74       1.0  T
   8    -21.0729573 -0.238980E-04  0.196E-02    0.72       1.7  T
   9    -21.0729576 -0.324769E-06  0.952E-03    0.72       3.5  T
  10    -21.0729578 -0.238462E-06  0.363E-03    0.73       9.2  T
  11    -21.0729579 -0.627112E-07  0.152E-03    0.73      21.9  T
  12    -21.0729579 -0.185924E-08  0.307E-04    0.73     108.7  T
  13    -21.0729579 -0.374730E-09  0.121E-04    0.73     275.6  T
  14    -21.0729579 -0.945377E-11  0.176E-05    0.73    1896.7  T

   *** convergence criteria satisfied after 14 iterations ***

         #    Occupation            Energy/Eh            Energy/eV
      -------------------------------------------------------------
         1        2.0000           -0.7509835             -20.4353
       ...           ...                  ...                  ...
        12        2.0000           -0.5419432             -14.7470
        13        2.0000           -0.5272764             -14.3479
        14        2.0000           -0.5054062             -13.7528
        15        2.0000           -0.4974902             -13.5374
        16        2.0000           -0.4542958             -12.3620
        17        2.0000           -0.4333409             -11.7918
        18        2.0000           -0.3966708             -10.7940 (HOMO)
        19        0.0000           -0.3700248             -10.0689 (LUMO)
        20                         -0.3020488              -8.2192
        21                         -0.3003123              -8.1719
        22                         -0.2186612              -5.9501
        23                         -0.0138577              -0.3771
       ...                                ...                  ...
        30                          0.7035710              19.1451
      -------------------------------------------------------------
                  HL-Gap            0.0266460 Eh            0.7251 eV
             Fermi-level           -0.3833478 Eh          -10.4314 eV

 SCC (total)                   0 d,  0 h,  0 min,  0.007 sec
 SCC setup                      ...        0 min,  0.000 sec (  1.699%)
 Dispersion                     ...        0 min,  0.000 sec (  0.726%)
 integral evaluation            ...        0 min,  0.001 sec ( 14.411%)
 zeroth order Hamiltonian       ...        0 min,  0.000 sec (  0.405%)
 iterations                     ...        0 min,  0.004 sec ( 54.182%)
 molecular gradient             ...        0 min,  0.002 sec ( 25.951%)
 printout                       ...        0 min,  0.000 sec (  2.167%)

         :::::::::::::::::::::::::::::::::::::::::::::::::::::
         ::                     SUMMARY                     ::
         :::::::::::::::::::::::::::::::::::::::::::::::::::::
         :: total energy              -20.855970654868 Eh   ::
         :: gradient norm               0.046588197294 Eh/α ::
         :: HOMO-LUMO gap               0.725074226616 eV   ::
         ::.................................................::
         :: SCC energy                -21.072957884594 Eh   ::
         :: -> isotropic ES             0.029676918431 Eh   ::
         :: -> anisotropic ES           0.002682660782 Eh   ::
         :: -> anisotropic XC           0.031370318222 Eh   ::
         :: -> dispersion              -0.006065699065 Eh   ::
         :: repulsion energy            0.216983356909 Eh   ::
         :: add. restraining            0.000000000000 Eh   ::
         :::::::::::::::::::::::::::::::::::::::::::::::::::::

           -------------------------------------------------
          |                Property Printout                |
           -------------------------------------------------

    * Orbital Energies and Occupations

         #    Occupation            Energy/Eh            Energy/eV
      -------------------------------------------------------------
         1        2.0000           -0.7509835             -20.4353
       ...           ...                  ...                  ...
         6        2.0000           -0.6469281             -17.6038
         7        2.0000           -0.6274191             -17.0729
         8        2.0000           -0.6094391             -16.5837
         9        2.0000           -0.5827145             -15.8565
        10        2.0000           -0.5728621             -15.5884
        11        2.0000           -0.5522533             -15.0276
        12        2.0000           -0.5419432             -14.7470
        13        2.0000           -0.5272764             -14.3479
        14        2.0000           -0.5054062             -13.7528
        15        2.0000           -0.4974902             -13.5374
        16        2.0000           -0.4542958             -12.3620
        17        2.0000           -0.4333409             -11.7918
        18        2.0000           -0.3966708             -10.7940 (HOMO)
        19        0.0000           -0.3700248             -10.0689 (LUMO)
        20                         -0.3020488              -8.2192
        21                         -0.3003123              -8.1719
        22                         -0.2186612              -5.9501
        23                         -0.0138577              -0.3771
        24                          0.0419373               1.1412
        25                          0.0760085               2.0683
        26                          0.1986365               5.4052
        27                          0.2998049               8.1581
        28                          0.3623676               9.8605
        29                          0.5242760              14.2663
        30                          0.7035710              19.1451
      -------------------------------------------------------------
                  HL-Gap            0.0266460 Eh            0.7251 eV
             Fermi-level           -0.3833478 Eh          -10.4314 eV

   #   Z        covCN         q      C6AA      α(0)
   1   7 N      1.776    -0.274    27.936     7.827
   2   6 C      2.820     0.167    24.389     8.092
   3   7 N      2.164     0.208    18.190     6.329
   4   7 N      0.984    -0.103    22.898     6.883
   5   8 O      1.195    -0.290    19.419     5.918
   6   7 N      1.853     0.033    21.340     6.847
   7   6 C      2.848    -0.003    28.093     8.687
   8   1 H      0.860     0.176     1.235     1.741
   9   1 H      0.925     0.085     1.924     2.169

 Mol. C6AA /au·bohr⁶  :       1298.354809
 Mol. C8AA /au·bohr⁸  :      29675.780192
 Mol. α(0) /au        :         54.491542


Wiberg/Mayer (AO) data.
largest (>0.10) Wiberg bond orders for each atom
          total WBO             WBO to atom ...
     1  N   3.109        C    2 1.792    H    8 0.938
     2  C   3.946        N    1 1.792    C    7 1.115    N    3 0.917
     3  N   3.767        N    4 2.349    C    2 0.917    O    5 0.326
     4  N   2.877        N    3 2.349    O    5 0.263
     5  O   2.245        N    6 1.332    N    3 0.326    N    4 0.263    C    7 0.183
     6  N   3.212        C    7 1.594    O    5 1.332
     7  C   3.964        N    6 1.594    C    2 1.115    H    9 0.957    O    5 0.183
     8  H   0.969        N    1 0.938
     9  H   0.993        C    7 0.957

molecular dipole:
                 x           y           z       tot (Debye)
 q only:       -0.297       0.872       0.175
   full:       -0.510       0.903       0.073       2.642
molecular quadrupole (traceless):
                xx          xy          yy          xz          yz          zz
 q only:        3.791       1.964      -7.825       2.267      -0.981       4.033
  q+dip:        3.840       1.925     -10.270       2.533      -0.873       6.429
   full:        3.224       1.751     -11.147       1.655      -0.965       7.922


           -------------------------------------------------
          | TOTAL ENERGY              -20.855970654868 Eh   |
          | GRADIENT NORM               0.046588197294 Eh/α |
          | HOMO-LUMO GAP               0.725074226616 eV   |
           -------------------------------------------------

------------------------------------------------------------------------
 * finished run on 2021/06/02 at 10:00:06.404     
------------------------------------------------------------------------
 total:
 * wall-time:     0 d,  0 h,  0 min,  0.015 sec
 *  cpu-time:     0 d,  0 h,  0 min,  0.015 sec
 * ratio c/w:     0.986 speedup
 SCF:
 * wall-time:     0 d,  0 h,  0 min,  0.008 sec
 *  cpu-time:     0 d,  0 h,  0 min,  0.008 sec
 * ratio c/w:     1.000 speedup

