      -----------------------------------------------------------      
     |                   =====================                   |     
     |                           x T B                           |     
     |                   =====================                   |     
     |                         S. Grimme                         |     
     |          Mulliken Center for Theoretical Chemistry        |     
     |                    University of Bonn                     |     
     |                 Version 6.1.4 (SAW190525)                 |     
      -----------------------------------------------------------      

   This program is distributed in the hope that it will be useful,
   but WITHOUT ANY WARRANTY; without even the implied warranty of
   MERCHANTABILITY or FITNESS FOR A PARTICULAR PURPOSE.
   
   FOR NON-COMMERCIAL, ACADEMIA USE ONLY.
   
   Cite this work as:
   S. Grimme, C. Bannwarth, P. Shushkov, J. Comput. Theory Chem., 2017,
   13, 1989-2009. DOI: 10.1021/acs.jctc.7b00118
   C. Bannwarth, S. Ehlert and S. Grimme., J. Comput. Theory Chem., 2019,
   just accepted. DOI: 10.1021/acs.jctc.8b01176
   
   for sTDA-xTB:
   S. Grimme and C. Bannwarth, J. Chem. Phys., 2016, 145, 054103.
   DOI: 10.1063/1.4959605
   
   in the mass-spec context:
   V. Asgeirsson, C. Bauer and S. Grimme, Chem. Sci., 2017, 8, 4879.
   DOI: 10.1039/c7sc00601b
   
   for metadynamics refer to:
   S. Grimme, J. Chem. Theory Comput. Article ASAP, 2019,
   DOI: 10.1021/acs.jctc.9b00143
   
   with help from (in alphabetical order)
   C. Bannwarth, F. Bohle, G. Brandenburg, E. Caldeweyher, M. Checinski,
   S. Dohm, S. Ehlert, S. Ehrlich, F. März, H. Neugebauer, J. Pisarek,
   P. Pracht, P. Shushkov, and S. Spicher.
   
 * started run on 2021/06/02 at 10:00:06.849     

           -------------------------------------------------
          |                Calculation Setup                |
           -------------------------------------------------

          program call               : /groups/kemi/koerstz/opt/xtb/6.1/bin/xtb 16.xyz --gfn2 --acc 0.2 --chrg 0
          hostname                   : node305
          coordinate file            : 16.xyz
          omp threads                :                     1
          number of atoms            :                     9
          number of electrons        :                    36
          charge                     :                     0
          spin                       :                   0.0
          first test random number   :      0.01637509110937


########################################################################
# WARNING! Please study the warnings concerning your input carefully
#  - XTBPATH is not set, using XTBHOME instead
########################################################################

           ------------------------------------------------- 
          |                 G F N 2 - x T B                 |
          | Geometry, Frequencies, Noncovalent interactions |
          |            JCTC 2018 parametrisation            |
           ------------------------------------------------- 
             k(s)              :                1.8500
             k(p)              :                2.2300
             k(d)              :                2.2300
             k(f)              :                2.0000
             kEN (H0ij)        :               -2.0000
             D4 a1             :                0.5200
             D4 a2             :                5.0000
             D4 s6             :                1.0000
             D4 s8             :                2.7000
             D4 s9             :                5.0000
             alphaj            :                2.0000

  Z AO/shell   Hii/eV     exponent
  1     Wed Apr 25 08:07:45 CEST 2018   EN: 2.200 GM2: 0.406  GM3: 0.0800  RAES: 1.40
     1s    -10.707211    1.230000
  6     Wed Apr 25 08:07:45 CEST 2018   EN: 2.550 GM2: 0.538  GM3: 0.1500  RAES: 3.00
     2s    -13.970922    2.096432
     2p    -10.063292    1.800000
  7     Wed Apr 25 08:07:45 CEST 2018   EN: 3.040 GM2: 0.461  GM3:-0.0640  RAES: 1.90
     2s    -16.686243    2.339881
     2p    -12.523956    2.014332
  8     Wed Apr 25 08:07:45 CEST 2018   EN: 3.440 GM2: 0.452  GM3:-0.0517  RAES: 1.80
     2s    -20.229985    2.439742
     2p    -15.503117    2.137023


            Z     q(EN)     CN     RAES       Cart. coordinates
     1  N   5.0   -0.46    2.00    1.90    -1.34728     1.16983    -0.87457
     2  C   4.0    0.30    3.02    3.02    -0.50814    -0.89742    -0.00230
     3  N   5.0   -0.06    2.26    1.90    -1.63774    -3.31152    -0.57769
     4  N   5.0   -0.17    1.00    1.90    -3.43521    -4.47608    -0.40690
     5  O   6.0   -0.06    1.26    1.80     1.47878    -5.10557    -0.56118
     6  N   5.0   -0.18    2.02    1.90     2.81957    -3.63018     0.80503
     7  C   4.0    0.12    3.03    3.02     1.87805    -1.38070     1.24600
     8  H   1.0    0.33    1.00    1.43    -2.93185     1.12360    -1.99469
     9  H   1.0    0.17    0.99    1.43     2.83594     0.00663     2.42493

           ------------------------------------------------- 
          |        Self-Consistent Charge Iterations        |
           ------------------------------------------------- 
q/qsh data taken from xtbrestart
CAMM data taken from xtbrestart

          ...................................................
          :                      SETUP                      :
          :.................................................:
          :  # basis functions                  30          :
          :  # atomic orbitals                  30          :
          :  # shells                           16          :
          :  # electrons                        36          :
          :  max. iterations                   250          :
          :  Hamiltonian                  GFN2-xTB          :
          :  restarted?                       true          :
          :  GBSA solvation                  false          :
          :  PC potential                    false          :
          :  electronic temp.          300.0000000     K    :
          :  accuracy                    0.2000000          :
          :  -> integral cutoff          0.3198970E+02      :
          :  -> integral neglect         0.2000000E-08      :
          :  -> SCF convergence          0.2000000E-06 Eh   :
          :  -> wf. convergence          0.2000000E-04 e    :
          :  Broyden damping             0.4000000          :
          ...................................................

 iter      E             dE          RMSdq      gap      omega  full diag
   1    -21.0085772 -0.210086E+02  0.587E+00    1.97       0.0  T
   2    -21.0292449 -0.206677E-01  0.346E+00    0.71       1.0  T
   3    -21.0313467 -0.210176E-02  0.267E+00    1.37       1.0  T
   4    -21.0644884 -0.331417E-01  0.805E-01    0.69       1.0  T
   5    -21.0690275 -0.453907E-02  0.200E-01    0.72       1.0  T
   6    -21.0690781 -0.506059E-04  0.113E-01    0.70       1.0  T
   7    -21.0690938 -0.157576E-04  0.378E-02    0.71       1.0  T
   8    -21.0691041 -0.102856E-04  0.137E-02    0.71       2.4  T
   9    -21.0691042 -0.782148E-07  0.508E-03    0.71       6.6  T
  10    -21.0691044 -0.154632E-06  0.223E-03    0.71      15.0  T
  11    -21.0691044 -0.717324E-08  0.105E-03    0.71      31.9  T
  12    -21.0691044 -0.313338E-08  0.193E-04    0.71     172.3  T
  13    -21.0691044 -0.988010E-11  0.979E-05    0.71     340.3  T

   *** convergence criteria satisfied after 13 iterations ***

         #    Occupation            Energy/Eh            Energy/eV
      -------------------------------------------------------------
         1        2.0000           -0.7506179             -20.4254
       ...           ...                  ...                  ...
        12        2.0000           -0.5420435             -14.7498
        13        2.0000           -0.5267310             -14.3331
        14        2.0000           -0.5074656             -13.8088
        15        2.0000           -0.4960812             -13.4991
        16        2.0000           -0.4543892             -12.3646
        17        2.0000           -0.4324512             -11.7676
        18        2.0000           -0.3960710             -10.7776 (HOMO)
        19        0.0000           -0.3701180             -10.0714 (LUMO)
        20                         -0.3043806              -8.2826
        21                         -0.3011431              -8.1945
        22                         -0.2211647              -6.0182
        23                         -0.0145074              -0.3948
       ...                                ...                  ...
        30                          0.7059185              19.2090
      -------------------------------------------------------------
                  HL-Gap            0.0259530 Eh            0.7062 eV
             Fermi-level           -0.3830945 Eh          -10.4245 eV

 SCC (total)                   0 d,  0 h,  0 min,  0.007 sec
 SCC setup                      ...        0 min,  0.000 sec (  1.729%)
 Dispersion                     ...        0 min,  0.000 sec (  0.782%)
 integral evaluation            ...        0 min,  0.001 sec ( 14.558%)
 zeroth order Hamiltonian       ...        0 min,  0.000 sec (  0.419%)
 iterations                     ...        0 min,  0.004 sec ( 53.161%)
 molecular gradient             ...        0 min,  0.002 sec ( 26.405%)
 printout                       ...        0 min,  0.000 sec (  2.457%)

         :::::::::::::::::::::::::::::::::::::::::::::::::::::
         ::                     SUMMARY                     ::
         :::::::::::::::::::::::::::::::::::::::::::::::::::::
         :: total energy              -20.853045088611 Eh   ::
         :: gradient norm               0.046618063558 Eh/α ::
         :: HOMO-LUMO gap               0.706216886666 eV   ::
         ::.................................................::
         :: SCC energy                -21.069104363268 Eh   ::
         :: -> isotropic ES             0.030695220946 Eh   ::
         :: -> anisotropic ES           0.002582223033 Eh   ::
         :: -> anisotropic XC           0.031710892603 Eh   ::
         :: -> dispersion              -0.006074405546 Eh   ::
         :: repulsion energy            0.216055250226 Eh   ::
         :: add. restraining            0.000000000000 Eh   ::
         :::::::::::::::::::::::::::::::::::::::::::::::::::::

           -------------------------------------------------
          |                Property Printout                |
           -------------------------------------------------

    * Orbital Energies and Occupations

         #    Occupation            Energy/Eh            Energy/eV
      -------------------------------------------------------------
         1        2.0000           -0.7506179             -20.4254
       ...           ...                  ...                  ...
         6        2.0000           -0.6457020             -17.5704
         7        2.0000           -0.6283379             -17.0979
         8        2.0000           -0.6084427             -16.5566
         9        2.0000           -0.5828654             -15.8606
        10        2.0000           -0.5715563             -15.5528
        11        2.0000           -0.5519004             -15.0180
        12        2.0000           -0.5420435             -14.7498
        13        2.0000           -0.5267310             -14.3331
        14        2.0000           -0.5074656             -13.8088
        15        2.0000           -0.4960812             -13.4991
        16        2.0000           -0.4543892             -12.3646
        17        2.0000           -0.4324512             -11.7676
        18        2.0000           -0.3960710             -10.7776 (HOMO)
        19        0.0000           -0.3701180             -10.0714 (LUMO)
        20                         -0.3043806              -8.2826
        21                         -0.3011431              -8.1945
        22                         -0.2211647              -6.0182
        23                         -0.0145074              -0.3948
        24                          0.0322754               0.8783
        25                          0.0713849               1.9425
        26                          0.1906656               5.1883
        27                          0.2985453               8.1238
        28                          0.3663739               9.9695
        29                          0.5271119              14.3434
        30                          0.7059185              19.2090
      -------------------------------------------------------------
                  HL-Gap            0.0259530 Eh            0.7062 eV
             Fermi-level           -0.3830945 Eh          -10.4245 eV

   #   Z        covCN         q      C6AA      α(0)
   1   7 N      1.775    -0.273    27.893     7.821
   2   6 C      2.819     0.169    24.356     8.086
   3   7 N      2.135     0.208    18.238     6.337
   4   7 N      0.983    -0.096    22.764     6.863
   5   8 O      1.164    -0.298    19.591     5.943
   6   7 N      1.852     0.032    21.371     6.852
   7   6 C      2.849    -0.001    28.044     8.679
   8   1 H      0.859     0.175     1.242     1.746
   9   1 H      0.925     0.085     1.929     2.172

 Mol. C6AA /au·bohr⁶  :       1298.877891
 Mol. C8AA /au·bohr⁸  :      29682.202250
 Mol. α(0) /au        :         54.497668


Wiberg/Mayer (AO) data.
largest (>0.10) Wiberg bond orders for each atom
          total WBO             WBO to atom ...
     1  N   3.108        C    2 1.796    H    8 0.937
     2  C   3.945        N    1 1.796    C    7 1.106    N    3 0.919
     3  N   3.766        N    4 2.357    C    2 0.919    O    5 0.316
     4  N   2.888        N    3 2.357    O    5 0.263
     5  O   2.230        N    6 1.328    N    3 0.316    N    4 0.263    C    7 0.181
     6  N   3.209        C    7 1.599    O    5 1.328
     7  C   3.963        N    6 1.599    C    2 1.106    H    9 0.955    O    5 0.181
     8  H   0.969        N    1 0.937
     9  H   0.993        C    7 0.955

molecular dipole:
                 x           y           z       tot (Debye)
 q only:       -0.354       0.881       0.206
   full:       -0.578       0.914       0.102       2.761
molecular quadrupole (traceless):
                xx          xy          yy          xz          yz          zz
 q only:        3.786       2.260      -7.892       2.500      -1.254       4.107
  q+dip:        3.795       2.231     -10.416       2.919      -1.124       6.621
   full:        3.248       2.051     -11.296       2.119      -1.188       8.049


           -------------------------------------------------
          | TOTAL ENERGY              -20.853045088611 Eh   |
          | GRADIENT NORM               0.046618063558 Eh/α |
          | HOMO-LUMO GAP               0.706216886666 eV   |
           -------------------------------------------------

------------------------------------------------------------------------
 * finished run on 2021/06/02 at 10:00:06.864     
------------------------------------------------------------------------
 total:
 * wall-time:     0 d,  0 h,  0 min,  0.015 sec
 *  cpu-time:     0 d,  0 h,  0 min,  0.015 sec
 * ratio c/w:     0.987 speedup
 SCF:
 * wall-time:     0 d,  0 h,  0 min,  0.008 sec
 *  cpu-time:     0 d,  0 h,  0 min,  0.008 sec
 * ratio c/w:     1.000 speedup

