      -----------------------------------------------------------      
     |                   =====================                   |     
     |                           x T B                           |     
     |                   =====================                   |     
     |                         S. Grimme                         |     
     |          Mulliken Center for Theoretical Chemistry        |     
     |                    University of Bonn                     |     
     |                 Version 6.1.4 (SAW190525)                 |     
      -----------------------------------------------------------      

   This program is distributed in the hope that it will be useful,
   but WITHOUT ANY WARRANTY; without even the implied warranty of
   MERCHANTABILITY or FITNESS FOR A PARTICULAR PURPOSE.
   
   FOR NON-COMMERCIAL, ACADEMIA USE ONLY.
   
   Cite this work as:
   S. Grimme, C. Bannwarth, P. Shushkov, J. Comput. Theory Chem., 2017,
   13, 1989-2009. DOI: 10.1021/acs.jctc.7b00118
   C. Bannwarth, S. Ehlert and S. Grimme., J. Comput. Theory Chem., 2019,
   just accepted. DOI: 10.1021/acs.jctc.8b01176
   
   for sTDA-xTB:
   S. Grimme and C. Bannwarth, J. Chem. Phys., 2016, 145, 054103.
   DOI: 10.1063/1.4959605
   
   in the mass-spec context:
   V. Asgeirsson, C. Bauer and S. Grimme, Chem. Sci., 2017, 8, 4879.
   DOI: 10.1039/c7sc00601b
   
   for metadynamics refer to:
   S. Grimme, J. Chem. Theory Comput. Article ASAP, 2019,
   DOI: 10.1021/acs.jctc.9b00143
   
   with help from (in alphabetical order)
   C. Bannwarth, F. Bohle, G. Brandenburg, E. Caldeweyher, M. Checinski,
   S. Dohm, S. Ehlert, S. Ehrlich, F. März, H. Neugebauer, J. Pisarek,
   P. Pracht, P. Shushkov, and S. Spicher.
   
 * started run on 2021/06/02 at 10:00:06.470     

           -------------------------------------------------
          |                Calculation Setup                |
           -------------------------------------------------

          program call               : /groups/kemi/koerstz/opt/xtb/6.1/bin/xtb 17.xyz --gfn2 --acc 0.2 --chrg 0
          hostname                   : node305
          coordinate file            : 17.xyz
          omp threads                :                     1
          number of atoms            :                     9
          number of electrons        :                    36
          charge                     :                     0
          spin                       :                   0.0
          first test random number   :      0.44053769039256


########################################################################
# WARNING! Please study the warnings concerning your input carefully
#  - XTBPATH is not set, using XTBHOME instead
########################################################################

           ------------------------------------------------- 
          |                 G F N 2 - x T B                 |
          | Geometry, Frequencies, Noncovalent interactions |
          |            JCTC 2018 parametrisation            |
           ------------------------------------------------- 
             k(s)              :                1.8500
             k(p)              :                2.2300
             k(d)              :                2.2300
             k(f)              :                2.0000
             kEN (H0ij)        :               -2.0000
             D4 a1             :                0.5200
             D4 a2             :                5.0000
             D4 s6             :                1.0000
             D4 s8             :                2.7000
             D4 s9             :                5.0000
             alphaj            :                2.0000

  Z AO/shell   Hii/eV     exponent
  1     Wed Apr 25 08:07:45 CEST 2018   EN: 2.200 GM2: 0.406  GM3: 0.0800  RAES: 1.40
     1s    -10.707211    1.230000
  6     Wed Apr 25 08:07:45 CEST 2018   EN: 2.550 GM2: 0.538  GM3: 0.1500  RAES: 3.00
     2s    -13.970922    2.096432
     2p    -10.063292    1.800000
  7     Wed Apr 25 08:07:45 CEST 2018   EN: 3.040 GM2: 0.461  GM3:-0.0640  RAES: 1.90
     2s    -16.686243    2.339881
     2p    -12.523956    2.014332
  8     Wed Apr 25 08:07:45 CEST 2018   EN: 3.440 GM2: 0.452  GM3:-0.0517  RAES: 1.80
     2s    -20.229985    2.439742
     2p    -15.503117    2.137023


            Z     q(EN)     CN     RAES       Cart. coordinates
     1  N   5.0   -0.46    2.00    1.90    -1.29990     1.17715    -0.96624
     2  C   4.0    0.30    3.02    3.02    -0.52816    -0.87967    -0.01399
     3  N   5.0   -0.07    2.25    1.90    -1.67712    -3.29924    -0.51436
     4  N   5.0   -0.17    1.00    1.90    -3.38939    -4.55195    -0.18281
     5  O   6.0   -0.06    1.25    1.80     1.49537    -5.01388    -0.73720
     6  N   5.0   -0.17    2.02    1.90     2.82277    -3.58880     0.69451
     7  C   4.0    0.13    3.04    3.02     1.85577    -1.39314     1.24382
     8  H   1.0    0.33    1.00    1.43    -2.87824     1.14314    -2.07395
     9  H   1.0    0.17    0.99    1.43     2.75100    -0.09503     2.60884

           ------------------------------------------------- 
          |        Self-Consistent Charge Iterations        |
           ------------------------------------------------- 
q/qsh data taken from xtbrestart
CAMM data taken from xtbrestart

          ...................................................
          :                      SETUP                      :
          :.................................................:
          :  # basis functions                  30          :
          :  # atomic orbitals                  30          :
          :  # shells                           16          :
          :  # electrons                        36          :
          :  max. iterations                   250          :
          :  Hamiltonian                  GFN2-xTB          :
          :  restarted?                       true          :
          :  GBSA solvation                  false          :
          :  PC potential                    false          :
          :  electronic temp.          300.0000000     K    :
          :  accuracy                    0.2000000          :
          :  -> integral cutoff          0.3198970E+02      :
          :  -> integral neglect         0.2000000E-08      :
          :  -> SCF convergence          0.2000000E-06 Eh   :
          :  -> wf. convergence          0.2000000E-04 e    :
          :  Broyden damping             0.4000000          :
          ...................................................

 iter      E             dE          RMSdq      gap      omega  full diag
   1    -21.0330035 -0.210330E+02  0.569E+00    1.87       0.0  T
   2    -21.0369091 -0.390555E-02  0.342E+00    0.86       1.0  T
   3    -21.0116178  0.252913E-01  0.279E+00    1.46       1.0  T
   4    -21.0642217 -0.526039E-01  0.537E-01    0.76       1.0  T
   5    -21.0655125 -0.129077E-02  0.177E-01    0.70       1.0  T
   6    -21.0655064  0.614142E-05  0.933E-02    0.68       1.0  T
   7    -21.0655393 -0.329195E-04  0.360E-02    0.69       1.0  T
   8    -21.0655439 -0.458133E-05  0.142E-02    0.68       2.3  T
   9    -21.0655443 -0.463508E-06  0.749E-03    0.69       4.4  T
  10    -21.0655445 -0.122174E-06  0.326E-03    0.69      10.2  T
  11    -21.0655445 -0.553143E-07  0.112E-03    0.69      29.8  T
  12    -21.0655445  0.802203E-11  0.460E-04    0.69      72.4  T
  13    -21.0655445 -0.121796E-08  0.159E-04    0.69     209.6  T
  14    -21.0655445 -0.147672E-09  0.298E-05    0.69    1119.9  T

   *** convergence criteria satisfied after 14 iterations ***

         #    Occupation            Energy/Eh            Energy/eV
      -------------------------------------------------------------
         1        2.0000           -0.7509015             -20.4331
       ...           ...                  ...                  ...
        12        2.0000           -0.5413231             -14.7302
        13        2.0000           -0.5253312             -14.2950
        14        2.0000           -0.5095934             -13.8667
        15        2.0000           -0.4943321             -13.4515
        16        2.0000           -0.4540955             -12.3566
        17        2.0000           -0.4317519             -11.7486
        18        2.0000           -0.3943928             -10.7320 (HOMO)
        19        0.0000           -0.3691749             -10.0458 (LUMO)
        20                         -0.3078425              -8.3768
        21                         -0.2983215              -8.1177
        22                         -0.2252229              -6.1286
        23                         -0.0163501              -0.4449
       ...                                ...                  ...
        30                          0.7089790              19.2923
      -------------------------------------------------------------
                  HL-Gap            0.0252179 Eh            0.6862 eV
             Fermi-level           -0.3817839 Eh          -10.3889 eV

 SCC (total)                   0 d,  0 h,  0 min,  0.008 sec
 SCC setup                      ...        0 min,  0.000 sec (  1.648%)
 Dispersion                     ...        0 min,  0.000 sec (  0.692%)
 integral evaluation            ...        0 min,  0.001 sec ( 13.998%)
 zeroth order Hamiltonian       ...        0 min,  0.000 sec (  0.405%)
 iterations                     ...        0 min,  0.004 sec ( 53.626%)
 molecular gradient             ...        0 min,  0.002 sec ( 27.079%)
 printout                       ...        0 min,  0.000 sec (  2.119%)

         :::::::::::::::::::::::::::::::::::::::::::::::::::::
         ::                     SUMMARY                     ::
         :::::::::::::::::::::::::::::::::::::::::::::::::::::
         :: total energy              -20.848328027470 Eh   ::
         :: gradient norm               0.048596786401 Eh/α ::
         :: HOMO-LUMO gap               0.686214832175 eV   ::
         ::.................................................::
         :: SCC energy                -21.065544509013 Eh   ::
         :: -> isotropic ES             0.031591468514 Eh   ::
         :: -> anisotropic ES           0.002539558853 Eh   ::
         :: -> anisotropic XC           0.032041965230 Eh   ::
         :: -> dispersion              -0.006089525003 Eh   ::
         :: repulsion energy            0.217212239312 Eh   ::
         :: add. restraining            0.000000000000 Eh   ::
         :::::::::::::::::::::::::::::::::::::::::::::::::::::

           -------------------------------------------------
          |                Property Printout                |
           -------------------------------------------------

    * Orbital Energies and Occupations

         #    Occupation            Energy/Eh            Energy/eV
      -------------------------------------------------------------
         1        2.0000           -0.7509015             -20.4331
       ...           ...                  ...                  ...
         6        2.0000           -0.6445764             -17.5398
         7        2.0000           -0.6291188             -17.1192
         8        2.0000           -0.6083237             -16.5533
         9        2.0000           -0.5835223             -15.8784
        10        2.0000           -0.5713830             -15.5481
        11        2.0000           -0.5521669             -15.0252
        12        2.0000           -0.5413231             -14.7302
        13        2.0000           -0.5253312             -14.2950
        14        2.0000           -0.5095934             -13.8667
        15        2.0000           -0.4943321             -13.4515
        16        2.0000           -0.4540955             -12.3566
        17        2.0000           -0.4317519             -11.7486
        18        2.0000           -0.3943928             -10.7320 (HOMO)
        19        0.0000           -0.3691749             -10.0458 (LUMO)
        20                         -0.3078425              -8.3768
        21                         -0.2983215              -8.1177
        22                         -0.2252229              -6.1286
        23                         -0.0163501              -0.4449
        24                          0.0333158               0.9066
        25                          0.0672841               1.8309
        26                          0.1825523               4.9675
        27                          0.3021899               8.2230
        28                          0.3767714              10.2525
        29                          0.5304082              14.4331
        30                          0.7089790              19.2923
      -------------------------------------------------------------
                  HL-Gap            0.0252179 Eh            0.6862 eV
             Fermi-level           -0.3817839 Eh          -10.3889 eV

   #   Z        covCN         q      C6AA      α(0)
   1   7 N      1.775    -0.272    27.872     7.818
   2   6 C      2.821     0.171    24.310     8.079
   3   7 N      2.122     0.206    18.274     6.343
   4   7 N      0.983    -0.092    22.680     6.850
   5   8 O      1.151    -0.305    19.716     5.961
   6   7 N      1.854     0.030    21.402     6.857
   7   6 C      2.852     0.002    27.984     8.670
   8   1 H      0.860     0.176     1.235     1.741
   9   1 H      0.923     0.083     1.947     2.182

 Mol. C6AA /au·bohr⁶  :       1299.154420
 Mol. C8AA /au·bohr⁸  :      29683.697233
 Mol. α(0) /au        :         54.500405


Wiberg/Mayer (AO) data.
largest (>0.10) Wiberg bond orders for each atom
          total WBO             WBO to atom ...
     1  N   3.107        C    2 1.815    H    8 0.937
     2  C   3.943        N    1 1.815    C    7 1.086    N    3 0.919
     3  N   3.766        N    4 2.362    C    2 0.919    O    5 0.311
     4  N   2.897        N    3 2.362    O    5 0.265
     5  O   2.215        N    6 1.321    N    3 0.311    N    4 0.265    C    7 0.182
     6  N   3.207        C    7 1.610    O    5 1.321
     7  C   3.962        N    6 1.610    C    2 1.086    H    9 0.953    O    5 0.182
     8  H   0.969        N    1 0.937
     9  H   0.993        C    7 0.953

molecular dipole:
                 x           y           z       tot (Debye)
 q only:       -0.418       0.881       0.269
   full:       -0.664       0.920       0.178       2.919
molecular quadrupole (traceless):
                xx          xy          yy          xz          yz          zz
 q only:        3.751       2.388      -7.818       2.744      -1.587       4.067
  q+dip:        3.742       2.311     -10.490       3.367      -1.380       6.748
   full:        3.318       2.119     -11.361       2.676      -1.369       8.043


           -------------------------------------------------
          | TOTAL ENERGY              -20.848328027470 Eh   |
          | GRADIENT NORM               0.048596786401 Eh/α |
          | HOMO-LUMO GAP               0.686214832175 eV   |
           -------------------------------------------------

------------------------------------------------------------------------
 * finished run on 2021/06/02 at 10:00:06.485     
------------------------------------------------------------------------
 total:
 * wall-time:     0 d,  0 h,  0 min,  0.015 sec
 *  cpu-time:     0 d,  0 h,  0 min,  0.015 sec
 * ratio c/w:     0.986 speedup
 SCF:
 * wall-time:     0 d,  0 h,  0 min,  0.008 sec
 *  cpu-time:     0 d,  0 h,  0 min,  0.008 sec
 * ratio c/w:     1.000 speedup

