      -----------------------------------------------------------      
     |                   =====================                   |     
     |                           x T B                           |     
     |                   =====================                   |     
     |                         S. Grimme                         |     
     |          Mulliken Center for Theoretical Chemistry        |     
     |                    University of Bonn                     |     
     |                 Version 6.1.4 (SAW190525)                 |     
      -----------------------------------------------------------      

   This program is distributed in the hope that it will be useful,
   but WITHOUT ANY WARRANTY; without even the implied warranty of
   MERCHANTABILITY or FITNESS FOR A PARTICULAR PURPOSE.
   
   FOR NON-COMMERCIAL, ACADEMIA USE ONLY.
   
   Cite this work as:
   S. Grimme, C. Bannwarth, P. Shushkov, J. Comput. Theory Chem., 2017,
   13, 1989-2009. DOI: 10.1021/acs.jctc.7b00118
   C. Bannwarth, S. Ehlert and S. Grimme., J. Comput. Theory Chem., 2019,
   just accepted. DOI: 10.1021/acs.jctc.8b01176
   
   for sTDA-xTB:
   S. Grimme and C. Bannwarth, J. Chem. Phys., 2016, 145, 054103.
   DOI: 10.1063/1.4959605
   
   in the mass-spec context:
   V. Asgeirsson, C. Bauer and S. Grimme, Chem. Sci., 2017, 8, 4879.
   DOI: 10.1039/c7sc00601b
   
   for metadynamics refer to:
   S. Grimme, J. Chem. Theory Comput. Article ASAP, 2019,
   DOI: 10.1021/acs.jctc.9b00143
   
   with help from (in alphabetical order)
   C. Bannwarth, F. Bohle, G. Brandenburg, E. Caldeweyher, M. Checinski,
   S. Dohm, S. Ehlert, S. Ehrlich, F. März, H. Neugebauer, J. Pisarek,
   P. Pracht, P. Shushkov, and S. Spicher.
   
 * started run on 2021/06/02 at 10:00:07.011     

           -------------------------------------------------
          |                Calculation Setup                |
           -------------------------------------------------

          program call               : /groups/kemi/koerstz/opt/xtb/6.1/bin/xtb 18.xyz --gfn2 --acc 0.2 --chrg 0
          hostname                   : node305
          coordinate file            : 18.xyz
          omp threads                :                     1
          number of atoms            :                     9
          number of electrons        :                    36
          charge                     :                     0
          spin                       :                   0.0
          first test random number   :      0.70413737550921


########################################################################
# WARNING! Please study the warnings concerning your input carefully
#  - XTBPATH is not set, using XTBHOME instead
########################################################################

           ------------------------------------------------- 
          |                 G F N 2 - x T B                 |
          | Geometry, Frequencies, Noncovalent interactions |
          |            JCTC 2018 parametrisation            |
           ------------------------------------------------- 
             k(s)              :                1.8500
             k(p)              :                2.2300
             k(d)              :                2.2300
             k(f)              :                2.0000
             kEN (H0ij)        :               -2.0000
             D4 a1             :                0.5200
             D4 a2             :                5.0000
             D4 s6             :                1.0000
             D4 s8             :                2.7000
             D4 s9             :                5.0000
             alphaj            :                2.0000

  Z AO/shell   Hii/eV     exponent
  1     Wed Apr 25 08:07:45 CEST 2018   EN: 2.200 GM2: 0.406  GM3: 0.0800  RAES: 1.40
     1s    -10.707211    1.230000
  6     Wed Apr 25 08:07:45 CEST 2018   EN: 2.550 GM2: 0.538  GM3: 0.1500  RAES: 3.00
     2s    -13.970922    2.096432
     2p    -10.063292    1.800000
  7     Wed Apr 25 08:07:45 CEST 2018   EN: 3.040 GM2: 0.461  GM3:-0.0640  RAES: 1.90
     2s    -16.686243    2.339881
     2p    -12.523956    2.014332
  8     Wed Apr 25 08:07:45 CEST 2018   EN: 3.440 GM2: 0.452  GM3:-0.0517  RAES: 1.80
     2s    -20.229985    2.439742
     2p    -15.503117    2.137023


            Z     q(EN)     CN     RAES       Cart. coordinates
     1  N   5.0   -0.46    2.00    1.90    -1.32234     1.16790    -0.95588
     2  C   4.0    0.30    3.02    3.02    -0.52424    -0.88580    -0.01003
     3  N   5.0   -0.06    2.27    1.90    -1.66047    -3.30443    -0.43767
     4  N   5.0   -0.17    1.00    1.90    -3.42071    -4.53004    -0.21305
     5  O   6.0   -0.06    1.26    1.80     1.49879    -4.98894    -0.79694
     6  N   5.0   -0.17    2.02    1.90     2.83388    -3.57726     0.66674
     7  C   4.0    0.13    3.04    3.02     1.86888    -1.38856     1.26564
     8  H   1.0    0.33    1.00    1.43    -2.86999     1.11186    -2.08700
     9  H   1.0    0.17    0.99    1.43     2.74831    -0.10614     2.62682

           ------------------------------------------------- 
          |        Self-Consistent Charge Iterations        |
           ------------------------------------------------- 
q/qsh data taken from xtbrestart
CAMM data taken from xtbrestart

          ...................................................
          :                      SETUP                      :
          :.................................................:
          :  # basis functions                  30          :
          :  # atomic orbitals                  30          :
          :  # shells                           16          :
          :  # electrons                        36          :
          :  max. iterations                   250          :
          :  Hamiltonian                  GFN2-xTB          :
          :  restarted?                       true          :
          :  GBSA solvation                  false          :
          :  PC potential                    false          :
          :  electronic temp.          300.0000000     K    :
          :  accuracy                    0.2000000          :
          :  -> integral cutoff          0.3198970E+02      :
          :  -> integral neglect         0.2000000E-08      :
          :  -> SCF convergence          0.2000000E-06 Eh   :
          :  -> wf. convergence          0.2000000E-04 e    :
          :  Broyden damping             0.4000000          :
          ...................................................

 iter      E             dE          RMSdq      gap      omega  full diag
   1    -21.0566335 -0.210566E+02  0.185E+00    0.88       0.0  T
   2    -21.0529934  0.364011E-02  0.140E+00    0.56       1.0  T
   3    -21.0583123 -0.531885E-02  0.892E-01    0.88       1.0  T
   4    -21.0632242 -0.491192E-02  0.137E-01    0.72       1.0  T
   5    -21.0632868 -0.626142E-04  0.724E-02    0.72       1.0  T
   6    -21.0632963 -0.948038E-05  0.205E-02    0.71       1.6  T
   7    -21.0632977 -0.139326E-05  0.862E-03    0.71       3.9  T
   8    -21.0632977 -0.347772E-07  0.459E-03    0.71       7.3  T
   9    -21.0632978 -0.736685E-07  0.145E-03    0.71      23.0  T
  10    -21.0632978 -0.996905E-08  0.491E-04    0.71      67.9  T
  11    -21.0632978 -0.458900E-09  0.206E-04    0.71     161.7  T
  12    -21.0632978 -0.209145E-09  0.566E-05    0.71     588.8  T
  13    -21.0632978 -0.640554E-11  0.116E-05    0.71    2877.9  T

   *** convergence criteria satisfied after 13 iterations ***

         #    Occupation            Energy/Eh            Energy/eV
      -------------------------------------------------------------
         1        2.0000           -0.7504833             -20.4217
       ...           ...                  ...                  ...
        12        2.0000           -0.5414720             -14.7342
        13        2.0000           -0.5249430             -14.2844
        14        2.0000           -0.5094948             -13.8641
        15        2.0000           -0.4943053             -13.4507
        16        2.0000           -0.4551673             -12.3857
        17        2.0000           -0.4330335             -11.7834
        18        2.0000           -0.3953539             -10.7581 (HOMO)
        19        0.0000           -0.3692443             -10.0476 (LUMO)
        20                         -0.3113652              -8.4727
        21                         -0.2981499              -8.1131
        22                         -0.2270350              -6.1779
        23                         -0.0090976              -0.2476
       ...                                ...                  ...
        30                          0.7047567              19.1774
      -------------------------------------------------------------
                  HL-Gap            0.0261097 Eh            0.7105 eV
             Fermi-level           -0.3822991 Eh          -10.4029 eV

 SCC (total)                   0 d,  0 h,  0 min,  0.007 sec
 SCC setup                      ...        0 min,  0.000 sec (  1.678%)
 Dispersion                     ...        0 min,  0.000 sec (  0.773%)
 integral evaluation            ...        0 min,  0.001 sec ( 14.635%)
 zeroth order Hamiltonian       ...        0 min,  0.000 sec (  0.420%)
 iterations                     ...        0 min,  0.004 sec ( 52.977%)
 molecular gradient             ...        0 min,  0.002 sec ( 26.716%)
 printout                       ...        0 min,  0.000 sec (  2.322%)

         :::::::::::::::::::::::::::::::::::::::::::::::::::::
         ::                     SUMMARY                     ::
         :::::::::::::::::::::::::::::::::::::::::::::::::::::
         :: total energy              -20.848441918930 Eh   ::
         :: gradient norm               0.054927570666 Eh/α ::
         :: HOMO-LUMO gap               0.710479936557 eV   ::
         ::.................................................::
         :: SCC energy                -21.063297805975 Eh   ::
         :: -> isotropic ES             0.031853596705 Eh   ::
         :: -> anisotropic ES           0.002448649101 Eh   ::
         :: -> anisotropic XC           0.032407892045 Eh   ::
         :: -> dispersion              -0.006087459317 Eh   ::
         :: repulsion energy            0.214851632585 Eh   ::
         :: add. restraining            0.000000000000 Eh   ::
         :::::::::::::::::::::::::::::::::::::::::::::::::::::

           -------------------------------------------------
          |                Property Printout                |
           -------------------------------------------------

    * Orbital Energies and Occupations

         #    Occupation            Energy/Eh            Energy/eV
      -------------------------------------------------------------
         1        2.0000           -0.7504833             -20.4217
       ...           ...                  ...                  ...
         6        2.0000           -0.6436721             -17.5152
         7        2.0000           -0.6295618             -17.1312
         8        2.0000           -0.6085071             -16.5583
         9        2.0000           -0.5843559             -15.9011
        10        2.0000           -0.5700118             -15.5108
        11        2.0000           -0.5530301             -15.0487
        12        2.0000           -0.5414720             -14.7342
        13        2.0000           -0.5249430             -14.2844
        14        2.0000           -0.5094948             -13.8641
        15        2.0000           -0.4943053             -13.4507
        16        2.0000           -0.4551673             -12.3857
        17        2.0000           -0.4330335             -11.7834
        18        2.0000           -0.3953539             -10.7581 (HOMO)
        19        0.0000           -0.3692443             -10.0476 (LUMO)
        20                         -0.3113652              -8.4727
        21                         -0.2981499              -8.1131
        22                         -0.2270350              -6.1779
        23                         -0.0090976              -0.2476
        24                          0.0346346               0.9425
        25                          0.0594032               1.6164
        26                          0.1832984               4.9878
        27                          0.3026783               8.2363
        28                          0.3648507               9.9281
        29                          0.5191650              14.1272
        30                          0.7047567              19.1774
      -------------------------------------------------------------
                  HL-Gap            0.0261097 Eh            0.7105 eV
             Fermi-level           -0.3822991 Eh          -10.4029 eV

   #   Z        covCN         q      C6AA      α(0)
   1   7 N      1.775    -0.271    27.851     7.815
   2   6 C      2.823     0.172    24.299     8.077
   3   7 N      2.139     0.209    18.213     6.332
   4   7 N      0.983    -0.095    22.748     6.860
   5   8 O      1.161    -0.306    19.726     5.963
   6   7 N      1.856     0.026    21.464     6.867
   7   6 C      2.853     0.002    27.965     8.667
   8   1 H      0.860     0.178     1.226     1.735
   9   1 H      0.924     0.085     1.933     2.174

 Mol. C6AA /au·bohr⁶  :       1298.714259
 Mol. C8AA /au·bohr⁸  :      29676.714158
 Mol. α(0) /au        :         54.490603


Wiberg/Mayer (AO) data.
largest (>0.10) Wiberg bond orders for each atom
          total WBO             WBO to atom ...
     1  N   3.104        C    2 1.813    H    8 0.937
     2  C   3.944        N    1 1.813    C    7 1.076    N    3 0.933
     3  N   3.773        N    4 2.352    C    2 0.933    O    5 0.318
     4  N   2.892        N    3 2.352    O    5 0.269
     5  O   2.209        N    6 1.309    N    3 0.318    N    4 0.269    C    7 0.181
     6  N   3.202        C    7 1.622    O    5 1.309
     7  C   3.963        N    6 1.622    C    2 1.076    H    9 0.955    O    5 0.181
     8  H   0.968        N    1 0.937
     9  H   0.993        C    7 0.955

molecular dipole:
                 x           y           z       tot (Debye)
 q only:       -0.409       0.889       0.301
   full:       -0.652       0.930       0.214       2.937
molecular quadrupole (traceless):
                xx          xy          yy          xz          yz          zz
 q only:        3.665       2.376      -7.776       2.756      -1.808       4.111
  q+dip:        3.561       2.324     -10.366       3.372      -1.608       6.806
   full:        3.128       2.132     -11.249       2.653      -1.651       8.121


           -------------------------------------------------
          | TOTAL ENERGY              -20.848441918930 Eh   |
          | GRADIENT NORM               0.054927570666 Eh/α |
          | HOMO-LUMO GAP               0.710479936557 eV   |
           -------------------------------------------------

------------------------------------------------------------------------
 * finished run on 2021/06/02 at 10:00:07.026     
------------------------------------------------------------------------
 total:
 * wall-time:     0 d,  0 h,  0 min,  0.015 sec
 *  cpu-time:     0 d,  0 h,  0 min,  0.015 sec
 * ratio c/w:     0.987 speedup
 SCF:
 * wall-time:     0 d,  0 h,  0 min,  0.008 sec
 *  cpu-time:     0 d,  0 h,  0 min,  0.007 sec
 * ratio c/w:     1.000 speedup

