      -----------------------------------------------------------      
     |                   =====================                   |     
     |                           x T B                           |     
     |                   =====================                   |     
     |                         S. Grimme                         |     
     |          Mulliken Center for Theoretical Chemistry        |     
     |                    University of Bonn                     |     
     |                 Version 6.1.4 (SAW190525)                 |     
      -----------------------------------------------------------      

   This program is distributed in the hope that it will be useful,
   but WITHOUT ANY WARRANTY; without even the implied warranty of
   MERCHANTABILITY or FITNESS FOR A PARTICULAR PURPOSE.
   
   FOR NON-COMMERCIAL, ACADEMIA USE ONLY.
   
   Cite this work as:
   S. Grimme, C. Bannwarth, P. Shushkov, J. Comput. Theory Chem., 2017,
   13, 1989-2009. DOI: 10.1021/acs.jctc.7b00118
   C. Bannwarth, S. Ehlert and S. Grimme., J. Comput. Theory Chem., 2019,
   just accepted. DOI: 10.1021/acs.jctc.8b01176
   
   for sTDA-xTB:
   S. Grimme and C. Bannwarth, J. Chem. Phys., 2016, 145, 054103.
   DOI: 10.1063/1.4959605
   
   in the mass-spec context:
   V. Asgeirsson, C. Bauer and S. Grimme, Chem. Sci., 2017, 8, 4879.
   DOI: 10.1039/c7sc00601b
   
   for metadynamics refer to:
   S. Grimme, J. Chem. Theory Comput. Article ASAP, 2019,
   DOI: 10.1021/acs.jctc.9b00143
   
   with help from (in alphabetical order)
   C. Bannwarth, F. Bohle, G. Brandenburg, E. Caldeweyher, M. Checinski,
   S. Dohm, S. Ehlert, S. Ehrlich, F. März, H. Neugebauer, J. Pisarek,
   P. Pracht, P. Shushkov, and S. Spicher.
   
 * started run on 2021/06/02 at 10:00:07.359     

           -------------------------------------------------
          |                Calculation Setup                |
           -------------------------------------------------

          program call               : /groups/kemi/koerstz/opt/xtb/6.1/bin/xtb 19.xyz --gfn2 --acc 0.2 --chrg 0
          hostname                   : node305
          coordinate file            : 19.xyz
          omp threads                :                     1
          number of atoms            :                     9
          number of electrons        :                    36
          charge                     :                     0
          spin                       :                   0.0
          first test random number   :      0.55822343679564


########################################################################
# WARNING! Please study the warnings concerning your input carefully
#  - XTBPATH is not set, using XTBHOME instead
########################################################################

           ------------------------------------------------- 
          |                 G F N 2 - x T B                 |
          | Geometry, Frequencies, Noncovalent interactions |
          |            JCTC 2018 parametrisation            |
           ------------------------------------------------- 
             k(s)              :                1.8500
             k(p)              :                2.2300
             k(d)              :                2.2300
             k(f)              :                2.0000
             kEN (H0ij)        :               -2.0000
             D4 a1             :                0.5200
             D4 a2             :                5.0000
             D4 s6             :                1.0000
             D4 s8             :                2.7000
             D4 s9             :                5.0000
             alphaj            :                2.0000

  Z AO/shell   Hii/eV     exponent
  1     Wed Apr 25 08:07:45 CEST 2018   EN: 2.200 GM2: 0.406  GM3: 0.0800  RAES: 1.40
     1s    -10.707211    1.230000
  6     Wed Apr 25 08:07:45 CEST 2018   EN: 2.550 GM2: 0.538  GM3: 0.1500  RAES: 3.00
     2s    -13.970922    2.096432
     2p    -10.063292    1.800000
  7     Wed Apr 25 08:07:45 CEST 2018   EN: 3.040 GM2: 0.461  GM3:-0.0640  RAES: 1.90
     2s    -16.686243    2.339881
     2p    -12.523956    2.014332
  8     Wed Apr 25 08:07:45 CEST 2018   EN: 3.440 GM2: 0.452  GM3:-0.0517  RAES: 1.80
     2s    -20.229985    2.439742
     2p    -15.503117    2.137023


            Z     q(EN)     CN     RAES       Cart. coordinates
     1  N   5.0   -0.45    2.00    1.90    -1.25947     1.15591    -1.03025
     2  C   4.0    0.31    3.02    3.02    -0.55318    -0.88471     0.00940
     3  N   5.0   -0.07    2.21    1.90    -1.71507    -3.28563    -0.40265
     4  N   5.0   -0.16    1.00    1.90    -3.38502    -4.59289    -0.06390
     5  O   6.0   -0.07    1.20    1.80     1.52009    -4.90875    -0.96606
     6  N   5.0   -0.17    2.02    1.90     2.85598    -3.56819     0.60674
     7  C   4.0    0.12    3.03    3.02     1.85461    -1.39532     1.31576
     8  H   1.0    0.32    1.00    1.43    -2.84957     1.13997    -2.14801
     9  H   1.0    0.17    0.99    1.43     2.68373    -0.16180     2.73760

           ------------------------------------------------- 
          |        Self-Consistent Charge Iterations        |
           ------------------------------------------------- 
q/qsh data taken from xtbrestart
CAMM data taken from xtbrestart

          ...................................................
          :                      SETUP                      :
          :.................................................:
          :  # basis functions                  30          :
          :  # atomic orbitals                  30          :
          :  # shells                           16          :
          :  # electrons                        36          :
          :  max. iterations                   250          :
          :  Hamiltonian                  GFN2-xTB          :
          :  restarted?                       true          :
          :  GBSA solvation                  false          :
          :  PC potential                    false          :
          :  electronic temp.          300.0000000     K    :
          :  accuracy                    0.2000000          :
          :  -> integral cutoff          0.3198970E+02      :
          :  -> integral neglect         0.2000000E-08      :
          :  -> SCF convergence          0.2000000E-06 Eh   :
          :  -> wf. convergence          0.2000000E-04 e    :
          :  Broyden damping             0.4000000          :
          ...................................................

 iter      E             dE          RMSdq      gap      omega  full diag
   1    -20.9881316 -0.209881E+02  0.597E+00    2.17       0.0  T
   2    -20.9885749 -0.443318E-03  0.392E+00    0.73       1.0  T
   3    -21.0034588 -0.148839E-01  0.293E+00    1.52       1.0  T
   4    -21.0504287 -0.469699E-01  0.587E-01    0.74       1.0  T
   5    -21.0521044 -0.167569E-02  0.194E-01    0.71       1.0  T
   6    -21.0521377 -0.332978E-04  0.113E-01    0.71       1.0  T
   7    -21.0521843 -0.465996E-04  0.388E-02    0.71       1.0  T
   8    -21.0521892 -0.491860E-05  0.154E-02    0.70       2.2  T
   9    -21.0521900 -0.743137E-06  0.877E-03    0.70       3.8  T
  10    -21.0521902 -0.216970E-06  0.363E-03    0.70       9.2  T
  11    -21.0521903 -0.614546E-07  0.125E-03    0.70      26.6  T
  12    -21.0521903 -0.149530E-08  0.204E-04    0.70     163.4  T
  13    -21.0521903  0.329976E-10  0.100E-04    0.70     331.9  T
  14    -21.0521903 -0.696723E-10  0.326E-05    0.70    1021.6  T

   *** convergence criteria satisfied after 14 iterations ***

         #    Occupation            Energy/Eh            Energy/eV
      -------------------------------------------------------------
         1        2.0000           -0.7520491             -20.4643
       ...           ...                  ...                  ...
        12        2.0000           -0.5417622             -14.7421
        13        2.0000           -0.5232193             -14.2375
        14        2.0000           -0.5134369             -13.9713
        15        2.0000           -0.4920858             -13.3903
        16        2.0000           -0.4547269             -12.3738
        17        2.0000           -0.4303167             -11.7095
        18        2.0000           -0.3951695             -10.7531 (HOMO)
        19        0.0000           -0.3692829             -10.0487 (LUMO)
        20                         -0.3175095              -8.6399
        21                         -0.2994214              -8.1477
        22                         -0.2330778              -6.3424
        23                         -0.0117434              -0.3196
       ...                                ...                  ...
        30                          0.7188426              19.5607
      -------------------------------------------------------------
                  HL-Gap            0.0258865 Eh            0.7044 eV
             Fermi-level           -0.3822262 Eh          -10.4009 eV

 SCC (total)                   0 d,  0 h,  0 min,  0.008 sec
 SCC setup                      ...        0 min,  0.000 sec (  1.632%)
 Dispersion                     ...        0 min,  0.000 sec (  0.722%)
 integral evaluation            ...        0 min,  0.001 sec ( 14.372%)
 zeroth order Hamiltonian       ...        0 min,  0.000 sec (  0.420%)
 iterations                     ...        0 min,  0.004 sec ( 54.820%)
 molecular gradient             ...        0 min,  0.002 sec ( 25.584%)
 printout                       ...        0 min,  0.000 sec (  2.015%)

         :::::::::::::::::::::::::::::::::::::::::::::::::::::
         ::                     SUMMARY                     ::
         :::::::::::::::::::::::::::::::::::::::::::::::::::::
         :: total energy              -20.842450275321 Eh   ::
         :: gradient norm               0.064957595346 Eh/α ::
         :: HOMO-LUMO gap               0.704407862210 eV   ::
         ::.................................................::
         :: SCC energy                -21.052190263140 Eh   ::
         :: -> isotropic ES             0.033978459870 Eh   ::
         :: -> anisotropic ES           0.001747310912 Eh   ::
         :: -> anisotropic XC           0.033312568471 Eh   ::
         :: -> dispersion              -0.006093921783 Eh   ::
         :: repulsion energy            0.209735485260 Eh   ::
         :: add. restraining            0.000000000000 Eh   ::
         :::::::::::::::::::::::::::::::::::::::::::::::::::::

           -------------------------------------------------
          |                Property Printout                |
           -------------------------------------------------

    * Orbital Energies and Occupations

         #    Occupation            Energy/Eh            Energy/eV
      -------------------------------------------------------------
         1        2.0000           -0.7520491             -20.4643
       ...           ...                  ...                  ...
         6        2.0000           -0.6405383             -17.4299
         7        2.0000           -0.6303637             -17.1531
         8        2.0000           -0.6073983             -16.5281
         9        2.0000           -0.5837079             -15.8835
        10        2.0000           -0.5648430             -15.3702
        11        2.0000           -0.5513466             -15.0029
        12        2.0000           -0.5417622             -14.7421
        13        2.0000           -0.5232193             -14.2375
        14        2.0000           -0.5134369             -13.9713
        15        2.0000           -0.4920858             -13.3903
        16        2.0000           -0.4547269             -12.3738
        17        2.0000           -0.4303167             -11.7095
        18        2.0000           -0.3951695             -10.7531 (HOMO)
        19        0.0000           -0.3692829             -10.0487 (LUMO)
        20                         -0.3175095              -8.6399
        21                         -0.2994214              -8.1477
        22                         -0.2330778              -6.3424
        23                         -0.0117434              -0.3196
        24                          0.0159645               0.4344
        25                          0.0451225               1.2278
        26                          0.1673157               4.5529
        27                          0.2935281               7.9873
        28                          0.3335967               9.0776
        29                          0.5147627              14.0074
        30                          0.7188426              19.5607
      -------------------------------------------------------------
                  HL-Gap            0.0258865 Eh            0.7044 eV
             Fermi-level           -0.3822262 Eh          -10.4009 eV

   #   Z        covCN         q      C6AA      α(0)
   1   7 N      1.774    -0.268    27.768     7.803
   2   6 C      2.819     0.174    24.258     8.070
   3   7 N      2.081     0.213    18.224     6.333
   4   7 N      0.983    -0.084    22.517     6.826
   5   8 O      1.103    -0.320    20.028     6.006
   6   7 N      1.852     0.020    21.581     6.885
   7   6 C      2.845     0.003    27.954     8.665
   8   1 H      0.859     0.176     1.237     1.742
   9   1 H      0.925     0.086     1.918     2.166

 Mol. C6AA /au·bohr⁶  :       1299.427143
 Mol. C8AA /au·bohr⁸  :      29689.358397
 Mol. α(0) /au        :         54.496493


Wiberg/Mayer (AO) data.
largest (>0.10) Wiberg bond orders for each atom
          total WBO             WBO to atom ...
     1  N   3.102        C    2 1.826    H    8 0.937
     2  C   3.941        N    1 1.826    C    7 1.057    N    3 0.937
     3  N   3.775        N    4 2.371    C    2 0.937    O    5 0.299
     4  N   2.912        N    3 2.371    O    5 0.269
     5  O   2.185        N    6 1.305    N    3 0.299    N    4 0.269    C    7 0.183
     6  N   3.187        C    7 1.623    O    5 1.305
     7  C   3.961        N    6 1.623    C    2 1.057    H    9 0.955    O    5 0.183
     8  H   0.969        N    1 0.937
     9  H   0.993        C    7 0.955

molecular dipole:
                 x           y           z       tot (Debye)
 q only:       -0.534       0.905       0.380
   full:       -0.803       0.959       0.307       3.275
molecular quadrupole (traceless):
                xx          xy          yy          xz          yz          zz
 q only:        3.774       2.904      -7.763       3.003      -2.193       3.989
  q+dip:        3.703       2.877     -10.384       3.739      -1.904       6.681
   full:        3.371       2.645     -11.277       3.086      -1.904       7.906


           -------------------------------------------------
          | TOTAL ENERGY              -20.842450275321 Eh   |
          | GRADIENT NORM               0.064957595346 Eh/α |
          | HOMO-LUMO GAP               0.704407862210 eV   |
           -------------------------------------------------

------------------------------------------------------------------------
 * finished run on 2021/06/02 at 10:00:07.375     
------------------------------------------------------------------------
 total:
 * wall-time:     0 d,  0 h,  0 min,  0.016 sec
 *  cpu-time:     0 d,  0 h,  0 min,  0.016 sec
 * ratio c/w:     0.984 speedup
 SCF:
 * wall-time:     0 d,  0 h,  0 min,  0.008 sec
 *  cpu-time:     0 d,  0 h,  0 min,  0.008 sec
 * ratio c/w:     0.999 speedup

