      -----------------------------------------------------------      
     |                   =====================                   |     
     |                           x T B                           |     
     |                   =====================                   |     
     |                         S. Grimme                         |     
     |          Mulliken Center for Theoretical Chemistry        |     
     |                    University of Bonn                     |     
     |                 Version 6.1.4 (SAW190525)                 |     
      -----------------------------------------------------------      

   This program is distributed in the hope that it will be useful,
   but WITHOUT ANY WARRANTY; without even the implied warranty of
   MERCHANTABILITY or FITNESS FOR A PARTICULAR PURPOSE.
   
   FOR NON-COMMERCIAL, ACADEMIA USE ONLY.
   
   Cite this work as:
   S. Grimme, C. Bannwarth, P. Shushkov, J. Comput. Theory Chem., 2017,
   13, 1989-2009. DOI: 10.1021/acs.jctc.7b00118
   C. Bannwarth, S. Ehlert and S. Grimme., J. Comput. Theory Chem., 2019,
   just accepted. DOI: 10.1021/acs.jctc.8b01176
   
   for sTDA-xTB:
   S. Grimme and C. Bannwarth, J. Chem. Phys., 2016, 145, 054103.
   DOI: 10.1063/1.4959605
   
   in the mass-spec context:
   V. Asgeirsson, C. Bauer and S. Grimme, Chem. Sci., 2017, 8, 4879.
   DOI: 10.1039/c7sc00601b
   
   for metadynamics refer to:
   S. Grimme, J. Chem. Theory Comput. Article ASAP, 2019,
   DOI: 10.1021/acs.jctc.9b00143
   
   with help from (in alphabetical order)
   C. Bannwarth, F. Bohle, G. Brandenburg, E. Caldeweyher, M. Checinski,
   S. Dohm, S. Ehlert, S. Ehrlich, F. März, H. Neugebauer, J. Pisarek,
   P. Pracht, P. Shushkov, and S. Spicher.
   
 * started run on 2021/06/02 at 10:00:07.236     

           -------------------------------------------------
          |                Calculation Setup                |
           -------------------------------------------------

          program call               : /groups/kemi/koerstz/opt/xtb/6.1/bin/xtb 2.xyz --gfn2 --acc 0.2 --chrg 0
          hostname                   : node305
          coordinate file            : 2.xyz
          omp threads                :                     1
          number of atoms            :                     9
          number of electrons        :                    36
          charge                     :                     0
          spin                       :                   0.0
          first test random number   :      0.94212345596426


########################################################################
# WARNING! Please study the warnings concerning your input carefully
#  - XTBPATH is not set, using XTBHOME instead
########################################################################

           ------------------------------------------------- 
          |                 G F N 2 - x T B                 |
          | Geometry, Frequencies, Noncovalent interactions |
          |            JCTC 2018 parametrisation            |
           ------------------------------------------------- 
             k(s)              :                1.8500
             k(p)              :                2.2300
             k(d)              :                2.2300
             k(f)              :                2.0000
             kEN (H0ij)        :               -2.0000
             D4 a1             :                0.5200
             D4 a2             :                5.0000
             D4 s6             :                1.0000
             D4 s8             :                2.7000
             D4 s9             :                5.0000
             alphaj            :                2.0000

  Z AO/shell   Hii/eV     exponent
  1     Wed Apr 25 08:07:45 CEST 2018   EN: 2.200 GM2: 0.406  GM3: 0.0800  RAES: 1.40
     1s    -10.707211    1.230000
  6     Wed Apr 25 08:07:45 CEST 2018   EN: 2.550 GM2: 0.538  GM3: 0.1500  RAES: 3.00
     2s    -13.970922    2.096432
     2p    -10.063292    1.800000
  7     Wed Apr 25 08:07:45 CEST 2018   EN: 3.040 GM2: 0.461  GM3:-0.0640  RAES: 1.90
     2s    -16.686243    2.339881
     2p    -12.523956    2.014332
  8     Wed Apr 25 08:07:45 CEST 2018   EN: 3.440 GM2: 0.452  GM3:-0.0517  RAES: 1.80
     2s    -20.229985    2.439742
     2p    -15.503117    2.137023


            Z     q(EN)     CN     RAES       Cart. coordinates
     1  N   5.0   -0.46    2.00    1.90    -1.53251     1.11200    -0.56700
     2  C   4.0    0.30    3.03    3.02    -0.40094    -0.91771    -0.09858
     3  N   5.0   -0.04    2.47    1.90    -1.47117    -3.35249    -0.71682
     4  N   5.0   -0.19    1.00    1.90    -3.23277    -4.21499    -1.58728
     5  O   6.0   -0.04    1.48    1.80     1.10130    -5.28054     0.43797
     6  N   5.0   -0.19    2.03    1.90     2.66931    -3.66209     1.25119
     7  C   4.0    0.12    3.04    3.02     2.02900    -1.31918     1.04484
     8  H   1.0    0.33    1.00    1.43    -3.25896     0.97498    -1.40034
     9  H   1.0    0.17    1.00    1.43     3.24885     0.15862     1.69466

           ------------------------------------------------- 
          |        Self-Consistent Charge Iterations        |
           ------------------------------------------------- 
q/qsh data taken from xtbrestart
CAMM data taken from xtbrestart

          ...................................................
          :                      SETUP                      :
          :.................................................:
          :  # basis functions                  30          :
          :  # atomic orbitals                  30          :
          :  # shells                           16          :
          :  # electrons                        36          :
          :  max. iterations                   250          :
          :  Hamiltonian                  GFN2-xTB          :
          :  restarted?                       true          :
          :  GBSA solvation                  false          :
          :  PC potential                    false          :
          :  electronic temp.          300.0000000     K    :
          :  accuracy                    0.2000000          :
          :  -> integral cutoff          0.3198970E+02      :
          :  -> integral neglect         0.2000000E-08      :
          :  -> SCF convergence          0.2000000E-06 Eh   :
          :  -> wf. convergence          0.2000000E-04 e    :
          :  Broyden damping             0.4000000          :
          ...................................................

 iter      E             dE          RMSdq      gap      omega  full diag
   1    -21.0130936 -0.210131E+02  0.676E+00    1.59       0.0  T
   2    -21.0760052 -0.629116E-01  0.405E+00    1.21       1.0  T
   3    -21.0885782 -0.125730E-01  0.221E+00    1.02       1.0  T
   4    -21.0984336 -0.985537E-02  0.672E-01    0.90       1.0  T
   5    -21.0994447 -0.101113E-02  0.297E-01    0.75       1.0  T
   6    -21.0999073 -0.462532E-03  0.181E-01    0.82       1.0  T
   7    -21.1000298 -0.122564E-03  0.416E-02    0.80       1.0  T
   8    -21.1000353 -0.544014E-05  0.199E-02    0.80       1.7  T
   9    -21.1000356 -0.291588E-06  0.594E-03    0.80       5.6  T
  10    -21.1000357 -0.106083E-06  0.308E-03    0.80      10.8  T
  11    -21.1000357 -0.144287E-07  0.106E-03    0.80      31.4  T
  12    -21.1000357 -0.408532E-08  0.274E-04    0.80     121.5  T
  13    -21.1000357 -0.419433E-10  0.659E-05    0.80     506.0  T
  14    -21.1000357 -0.695266E-11  0.233E-05    0.80    1430.1  T

   *** convergence criteria satisfied after 14 iterations ***

         #    Occupation            Energy/Eh            Energy/eV
      -------------------------------------------------------------
         1        2.0000           -0.7595446             -20.6683
       ...           ...                  ...                  ...
        12        2.0000           -0.5393132             -14.6755
        13        2.0000           -0.5326595             -14.4944
        14        2.0000           -0.5024279             -13.6718
        15        2.0000           -0.4943651             -13.4524
        16        2.0000           -0.4561422             -12.4123
        17        2.0000           -0.4403917             -11.9837
        18        2.0000           -0.3978664             -10.8265 (HOMO)
        19        0.0000           -0.3686102             -10.0304 (LUMO)
        20                         -0.2932465              -7.9796
        21                         -0.2853409              -7.7645
        22                         -0.1993107              -5.4235
        23                         -0.0077674              -0.2114
       ...                                ...                  ...
        30                          0.7389969              20.1091
      -------------------------------------------------------------
                  HL-Gap            0.0292562 Eh            0.7961 eV
             Fermi-level           -0.3832383 Eh          -10.4284 eV

 SCC (total)                   0 d,  0 h,  0 min,  0.065 sec
 SCC setup                      ...        0 min,  0.000 sec (  0.196%)
 Dispersion                     ...        0 min,  0.000 sec (  0.086%)
 integral evaluation            ...        0 min,  0.001 sec (  1.648%)
 zeroth order Hamiltonian       ...        0 min,  0.000 sec (  0.047%)
 iterations                     ...        0 min,  0.004 sec (  6.275%)
 molecular gradient             ...        0 min,  0.002 sec (  2.948%)
 printout                       ...        0 min,  0.058 sec ( 88.734%)

         :::::::::::::::::::::::::::::::::::::::::::::::::::::
         ::                     SUMMARY                     ::
         :::::::::::::::::::::::::::::::::::::::::::::::::::::
         :: total energy              -20.867215255932 Eh   ::
         :: gradient norm               0.001855291947 Eh/α ::
         :: HOMO-LUMO gap               0.796102407497 eV   ::
         ::.................................................::
         :: SCC energy                -21.100035681457 Eh   ::
         :: -> isotropic ES             0.027518614462 Eh   ::
         :: -> anisotropic ES           0.003500084709 Eh   ::
         :: -> anisotropic XC           0.029913679383 Eh   ::
         :: -> dispersion              -0.006054789921 Eh   ::
         :: repulsion energy            0.232817308645 Eh   ::
         :: add. restraining            0.000000000000 Eh   ::
         :::::::::::::::::::::::::::::::::::::::::::::::::::::

           -------------------------------------------------
          |                Property Printout                |
           -------------------------------------------------

    * Orbital Energies and Occupations

         #    Occupation            Energy/Eh            Energy/eV
      -------------------------------------------------------------
         1        2.0000           -0.7595446             -20.6683
       ...           ...                  ...                  ...
         6        2.0000           -0.6535242             -17.7833
         7        2.0000           -0.6258643             -17.0306
         8        2.0000           -0.6164958             -16.7757
         9        2.0000           -0.5841433             -15.8953
        10        2.0000           -0.5789812             -15.7549
        11        2.0000           -0.5539815             -15.0746
        12        2.0000           -0.5393132             -14.6755
        13        2.0000           -0.5326595             -14.4944
        14        2.0000           -0.5024279             -13.6718
        15        2.0000           -0.4943651             -13.4524
        16        2.0000           -0.4561422             -12.4123
        17        2.0000           -0.4403917             -11.9837
        18        2.0000           -0.3978664             -10.8265 (HOMO)
        19        0.0000           -0.3686102             -10.0304 (LUMO)
        20                         -0.2932465              -7.9796
        21                         -0.2853409              -7.7645
        22                         -0.1993107              -5.4235
        23                         -0.0077674              -0.2114
        24                          0.0505512               1.3756
        25                          0.0925289               2.5178
        26                          0.2168789               5.9016
        27                          0.3181987               8.6586
        28                          0.4077062              11.0943
        29                          0.5523340              15.0298
        30                          0.7389969              20.1091
      -------------------------------------------------------------
                  HL-Gap            0.0292562 Eh            0.7961 eV
             Fermi-level           -0.3832383 Eh          -10.4284 eV

   #   Z        covCN         q      C6AA      α(0)
   1   7 N      1.778    -0.271    27.857     7.816
   2   6 C      2.828     0.163    24.472     8.106
   3   7 N      2.325     0.216    17.854     6.273
   4   7 N      0.985    -0.133    23.509     6.973
   5   8 O      1.361    -0.271    18.843     5.842
   6   7 N      1.861     0.034    21.324     6.844
   7   6 C      2.858    -0.001    28.052     8.681
   8   1 H      0.860     0.179     1.222     1.732
   9   1 H      0.926     0.084     1.938     2.177

 Mol. C6AA /au·bohr⁶  :       1294.998748
 Mol. C8AA /au·bohr⁸  :      29606.344227
 Mol. α(0) /au        :         54.445049


Wiberg/Mayer (AO) data.
largest (>0.10) Wiberg bond orders for each atom
          total WBO             WBO to atom ...
     1  N   3.109        C    2 1.793    H    8 0.935    N    4 0.120
     2  C   3.953        N    1 1.793    C    7 1.123    N    3 0.918
     3  N   3.782        N    4 2.309    C    2 0.918    O    5 0.380
     4  N   2.828        N    3 2.309    O    5 0.266    N    1 0.120
     5  O   2.272        N    6 1.313    N    3 0.380    N    4 0.266    C    7 0.177
     6  N   3.220        C    7 1.624    O    5 1.313
     7  C   3.968        N    6 1.624    C    2 1.123    H    9 0.959    O    5 0.177
     8  H   0.968        N    1 0.935
     9  H   0.993        C    7 0.959

molecular dipole:
                 x           y           z       tot (Debye)
 q only:       -0.056       0.879       0.009
   full:       -0.217       0.889      -0.066       2.333
molecular quadrupole (traceless):
                xx          xy          yy          xz          yz          zz
 q only:        4.547       0.740      -7.777       0.861       0.096       3.231
  q+dip:        5.159       0.787     -10.118       0.132      -0.057       4.959
   full:        4.537       0.695     -10.988      -1.187      -0.224       6.451


           -------------------------------------------------
          | TOTAL ENERGY              -20.867215255932 Eh   |
          | GRADIENT NORM               0.001855291947 Eh/α |
          | HOMO-LUMO GAP               0.796102407497 eV   |
           -------------------------------------------------

------------------------------------------------------------------------
 * finished run on 2021/06/02 at 10:00:07.310     
------------------------------------------------------------------------
 total:
 * wall-time:     0 d,  0 h,  0 min,  0.073 sec
 *  cpu-time:     0 d,  0 h,  0 min,  0.015 sec
 * ratio c/w:     0.208 speedup
 SCF:
 * wall-time:     0 d,  0 h,  0 min,  0.066 sec
 *  cpu-time:     0 d,  0 h,  0 min,  0.008 sec
 * ratio c/w:     0.118 speedup

