      -----------------------------------------------------------      
     |                   =====================                   |     
     |                           x T B                           |     
     |                   =====================                   |     
     |                         S. Grimme                         |     
     |          Mulliken Center for Theoretical Chemistry        |     
     |                    University of Bonn                     |     
     |                 Version 6.1.4 (SAW190525)                 |     
      -----------------------------------------------------------      

   This program is distributed in the hope that it will be useful,
   but WITHOUT ANY WARRANTY; without even the implied warranty of
   MERCHANTABILITY or FITNESS FOR A PARTICULAR PURPOSE.
   
   FOR NON-COMMERCIAL, ACADEMIA USE ONLY.
   
   Cite this work as:
   S. Grimme, C. Bannwarth, P. Shushkov, J. Comput. Theory Chem., 2017,
   13, 1989-2009. DOI: 10.1021/acs.jctc.7b00118
   C. Bannwarth, S. Ehlert and S. Grimme., J. Comput. Theory Chem., 2019,
   just accepted. DOI: 10.1021/acs.jctc.8b01176
   
   for sTDA-xTB:
   S. Grimme and C. Bannwarth, J. Chem. Phys., 2016, 145, 054103.
   DOI: 10.1063/1.4959605
   
   in the mass-spec context:
   V. Asgeirsson, C. Bauer and S. Grimme, Chem. Sci., 2017, 8, 4879.
   DOI: 10.1039/c7sc00601b
   
   for metadynamics refer to:
   S. Grimme, J. Chem. Theory Comput. Article ASAP, 2019,
   DOI: 10.1021/acs.jctc.9b00143
   
   with help from (in alphabetical order)
   C. Bannwarth, F. Bohle, G. Brandenburg, E. Caldeweyher, M. Checinski,
   S. Dohm, S. Ehlert, S. Ehrlich, F. März, H. Neugebauer, J. Pisarek,
   P. Pracht, P. Shushkov, and S. Spicher.
   
 * started run on 2021/06/02 at 10:00:06.970     

           -------------------------------------------------
          |                Calculation Setup                |
           -------------------------------------------------

          program call               : /groups/kemi/koerstz/opt/xtb/6.1/bin/xtb 20.xyz --gfn2 --acc 0.2 --chrg 0
          hostname                   : node305
          coordinate file            : 20.xyz
          omp threads                :                     1
          number of atoms            :                     9
          number of electrons        :                    36
          charge                     :                     0
          spin                       :                   0.0
          first test random number   :      0.89556194195652


########################################################################
# WARNING! Please study the warnings concerning your input carefully
#  - XTBPATH is not set, using XTBHOME instead
########################################################################

           ------------------------------------------------- 
          |                 G F N 2 - x T B                 |
          | Geometry, Frequencies, Noncovalent interactions |
          |            JCTC 2018 parametrisation            |
           ------------------------------------------------- 
             k(s)              :                1.8500
             k(p)              :                2.2300
             k(d)              :                2.2300
             k(f)              :                2.0000
             kEN (H0ij)        :               -2.0000
             D4 a1             :                0.5200
             D4 a2             :                5.0000
             D4 s6             :                1.0000
             D4 s8             :                2.7000
             D4 s9             :                5.0000
             alphaj            :                2.0000

  Z AO/shell   Hii/eV     exponent
  1     Wed Apr 25 08:07:45 CEST 2018   EN: 2.200 GM2: 0.406  GM3: 0.0800  RAES: 1.40
     1s    -10.707211    1.230000
  6     Wed Apr 25 08:07:45 CEST 2018   EN: 2.550 GM2: 0.538  GM3: 0.1500  RAES: 3.00
     2s    -13.970922    2.096432
     2p    -10.063292    1.800000
  7     Wed Apr 25 08:07:45 CEST 2018   EN: 3.040 GM2: 0.461  GM3:-0.0640  RAES: 1.90
     2s    -16.686243    2.339881
     2p    -12.523956    2.014332
  8     Wed Apr 25 08:07:45 CEST 2018   EN: 3.440 GM2: 0.452  GM3:-0.0517  RAES: 1.80
     2s    -20.229985    2.439742
     2p    -15.503117    2.137023


            Z     q(EN)     CN     RAES       Cart. coordinates
     1  N   5.0   -0.45    2.00    1.90    -1.24479     1.15070    -1.05415
     2  C   4.0    0.31    3.02    3.02    -0.57367    -0.88321     0.01783
     3  N   5.0   -0.08    2.19    1.90    -1.71844    -3.27724    -0.30905
     4  N   5.0   -0.16    1.00    1.90    -3.38309    -4.62759     0.03591
     5  O   6.0   -0.07    1.17    1.80     1.55224    -4.80676    -1.09708
     6  N   5.0   -0.17    2.02    1.90     2.86674    -3.54395     0.53297
     7  C   4.0    0.13    3.04    3.02     1.84495    -1.41263     1.31375
     8  H   1.0    0.33    1.00    1.43    -2.80923     1.13655    -2.20017
     9  H   1.0    0.17    0.99    1.43     2.61740    -0.23728     2.81864

           ------------------------------------------------- 
          |        Self-Consistent Charge Iterations        |
           ------------------------------------------------- 
q/qsh data taken from xtbrestart
CAMM data taken from xtbrestart

          ...................................................
          :                      SETUP                      :
          :.................................................:
          :  # basis functions                  30          :
          :  # atomic orbitals                  30          :
          :  # shells                           16          :
          :  # electrons                        36          :
          :  max. iterations                   250          :
          :  Hamiltonian                  GFN2-xTB          :
          :  restarted?                       true          :
          :  GBSA solvation                  false          :
          :  PC potential                    false          :
          :  electronic temp.          300.0000000     K    :
          :  accuracy                    0.2000000          :
          :  -> integral cutoff          0.3198970E+02      :
          :  -> integral neglect         0.2000000E-08      :
          :  -> SCF convergence          0.2000000E-06 Eh   :
          :  -> wf. convergence          0.2000000E-04 e    :
          :  Broyden damping             0.4000000          :
          ...................................................

 iter      E             dE          RMSdq      gap      omega  full diag
   1    -20.9115810 -0.209116E+02  0.663E+00    1.54       0.0  T
   2    -20.9685256 -0.569446E-01  0.424E+00    0.42       1.0  T
   3    -21.0153188 -0.467932E-01  0.270E+00    1.25       1.0  T
   4    -21.0193283 -0.400944E-02  0.167E+00    0.48       1.0  T
   5    -21.0446134 -0.252851E-01  0.429E-01    0.74       1.0  T
   6    -21.0454434 -0.830095E-03  0.152E-01    0.69       1.0  T
   7    -21.0454497 -0.628616E-05  0.627E-02    0.69       1.0  T
   8    -21.0454685 -0.187804E-04  0.207E-02    0.68       1.6  T
   9    -21.0454688 -0.237520E-06  0.124E-02    0.68       2.7  T
  10    -21.0454695 -0.727048E-06  0.464E-03    0.68       7.2  T
  11    -21.0454696 -0.135630E-06  0.186E-03    0.68      17.9  T
  12    -21.0454696 -0.498553E-08  0.443E-04    0.68      75.2  T
  13    -21.0454696 -0.581803E-09  0.194E-04    0.68     171.7  T
  14    -21.0454696 -0.107228E-09  0.315E-05    0.68    1057.6  T

   *** convergence criteria satisfied after 14 iterations ***

         #    Occupation            Energy/Eh            Energy/eV
      -------------------------------------------------------------
         1        2.0000           -0.7498910             -20.4056
       ...           ...                  ...                  ...
        12        2.0000           -0.5423368             -14.7577
        13        2.0000           -0.5224875             -14.2176
        14        2.0000           -0.5136427             -13.9769
        15        2.0000           -0.4924128             -13.3992
        16        2.0000           -0.4547295             -12.3738
        17        2.0000           -0.4300207             -11.7015
        18        2.0000           -0.3946981             -10.7403 (HOMO)
        19        0.0000           -0.3696391             -10.0584 (LUMO)
        20                         -0.3255072              -8.8575
        21                         -0.2976761              -8.1002
        22                         -0.2345453              -6.3823
        23                         -0.0052210              -0.1421
       ...                                ...                  ...
        30                          0.6939954              18.8846
      -------------------------------------------------------------
                  HL-Gap            0.0250590 Eh            0.6819 eV
             Fermi-level           -0.3821686 Eh          -10.3993 eV

 SCC (total)                   0 d,  0 h,  0 min,  0.008 sec
 SCC setup                      ...        0 min,  0.000 sec (  1.668%)
 Dispersion                     ...        0 min,  0.000 sec (  0.759%)
 integral evaluation            ...        0 min,  0.001 sec ( 14.449%)
 zeroth order Hamiltonian       ...        0 min,  0.000 sec (  0.429%)
 iterations                     ...        0 min,  0.004 sec ( 54.191%)
 molecular gradient             ...        0 min,  0.002 sec ( 25.923%)
 printout                       ...        0 min,  0.000 sec (  2.107%)

         :::::::::::::::::::::::::::::::::::::::::::::::::::::
         ::                     SUMMARY                     ::
         :::::::::::::::::::::::::::::::::::::::::::::::::::::
         :: total energy              -20.839154825005 Eh   ::
         :: gradient norm               0.079491937804 Eh/α ::
         :: HOMO-LUMO gap               0.681889895373 eV   ::
         ::.................................................::
         :: SCC energy                -21.045469621966 Eh   ::
         :: -> isotropic ES             0.033490620029 Eh   ::
         :: -> anisotropic ES           0.001925605845 Eh   ::
         :: -> anisotropic XC           0.033147917629 Eh   ::
         :: -> dispersion              -0.006105128593 Eh   ::
         :: repulsion energy            0.206310178593 Eh   ::
         :: add. restraining            0.000000000000 Eh   ::
         :::::::::::::::::::::::::::::::::::::::::::::::::::::

           -------------------------------------------------
          |                Property Printout                |
           -------------------------------------------------

    * Orbital Energies and Occupations

         #    Occupation            Energy/Eh            Energy/eV
      -------------------------------------------------------------
         1        2.0000           -0.7498910             -20.4056
       ...           ...                  ...                  ...
         6        2.0000           -0.6390019             -17.3881
         7        2.0000           -0.6288145             -17.1109
         8        2.0000           -0.6061279             -16.4936
         9        2.0000           -0.5847243             -15.9112
        10        2.0000           -0.5665182             -15.4157
        11        2.0000           -0.5511710             -14.9981
        12        2.0000           -0.5423368             -14.7577
        13        2.0000           -0.5224875             -14.2176
        14        2.0000           -0.5136427             -13.9769
        15        2.0000           -0.4924128             -13.3992
        16        2.0000           -0.4547295             -12.3738
        17        2.0000           -0.4300207             -11.7015
        18        2.0000           -0.3946981             -10.7403 (HOMO)
        19        0.0000           -0.3696391             -10.0584 (LUMO)
        20                         -0.3255072              -8.8575
        21                         -0.2976761              -8.1002
        22                         -0.2345453              -6.3823
        23                         -0.0052210              -0.1421
        24                          0.0166380               0.4527
        25                          0.0533678               1.4522
        26                          0.1670147               4.5447
        27                          0.2938536               7.9962
        28                          0.3418840               9.3031
        29                          0.5074957              13.8097
        30                          0.6939954              18.8846
      -------------------------------------------------------------
                  HL-Gap            0.0250590 Eh            0.6819 eV
             Fermi-level           -0.3821686 Eh          -10.3993 eV

   #   Z        covCN         q      C6AA      α(0)
   1   7 N      1.774    -0.266    27.730     7.798
   2   6 C      2.819     0.177    24.188     8.058
   3   7 N      2.065     0.204    18.375     6.359
   4   7 N      0.983    -0.085    22.535     6.829
   5   8 O      1.082    -0.317    19.986     5.999
   6   7 N      1.852     0.023    21.522     6.876
   7   6 C      2.856     0.002    27.966     8.668
   8   1 H      0.859     0.177     1.232     1.739
   9   1 H      0.925     0.084     1.937     2.177

 Mol. C6AA /au·bohr⁶  :       1299.693899
 Mol. C8AA /au·bohr⁸  :      29692.235928
 Mol. α(0) /au        :         54.501990


Wiberg/Mayer (AO) data.
largest (>0.10) Wiberg bond orders for each atom
          total WBO             WBO to atom ...
     1  N   3.100        C    2 1.829    H    8 0.937
     2  C   3.941        N    1 1.829    C    7 1.038    N    3 0.957
     3  N   3.773        N    4 2.353    C    2 0.957    O    5 0.290
     4  N   2.914        N    3 2.353    O    5 0.272
     5  O   2.181        N    6 1.309    N    3 0.290    N    4 0.272    C    7 0.185
     6  N   3.196        C    7 1.626    O    5 1.309
     7  C   3.960        N    6 1.626    C    2 1.038    H    9 0.955    O    5 0.185
     8  H   0.969        N    1 0.937
     9  H   0.993        C    7 0.955

molecular dipole:
                 x           y           z       tot (Debye)
 q only:       -0.532       0.880       0.429
   full:       -0.813       0.935       0.371       3.289
molecular quadrupole (traceless):
                xx          xy          yy          xz          yz          zz
 q only:        3.565       2.697      -7.416       3.094      -2.519       3.851
  q+dip:        3.480       2.604     -10.039       3.878      -2.286       6.559
   full:        3.208       2.374     -10.930       3.290      -2.259       7.722


           -------------------------------------------------
          | TOTAL ENERGY              -20.839154825005 Eh   |
          | GRADIENT NORM               0.079491937804 Eh/α |
          | HOMO-LUMO GAP               0.681889895373 eV   |
           -------------------------------------------------

------------------------------------------------------------------------
 * finished run on 2021/06/02 at 10:00:06.986     
------------------------------------------------------------------------
 total:
 * wall-time:     0 d,  0 h,  0 min,  0.015 sec
 *  cpu-time:     0 d,  0 h,  0 min,  0.015 sec
 * ratio c/w:     0.984 speedup
 SCF:
 * wall-time:     0 d,  0 h,  0 min,  0.008 sec
 *  cpu-time:     0 d,  0 h,  0 min,  0.008 sec
 * ratio c/w:     1.000 speedup

