      -----------------------------------------------------------      
     |                   =====================                   |     
     |                           x T B                           |     
     |                   =====================                   |     
     |                         S. Grimme                         |     
     |          Mulliken Center for Theoretical Chemistry        |     
     |                    University of Bonn                     |     
     |                 Version 6.1.4 (SAW190525)                 |     
      -----------------------------------------------------------      

   This program is distributed in the hope that it will be useful,
   but WITHOUT ANY WARRANTY; without even the implied warranty of
   MERCHANTABILITY or FITNESS FOR A PARTICULAR PURPOSE.
   
   FOR NON-COMMERCIAL, ACADEMIA USE ONLY.
   
   Cite this work as:
   S. Grimme, C. Bannwarth, P. Shushkov, J. Comput. Theory Chem., 2017,
   13, 1989-2009. DOI: 10.1021/acs.jctc.7b00118
   C. Bannwarth, S. Ehlert and S. Grimme., J. Comput. Theory Chem., 2019,
   just accepted. DOI: 10.1021/acs.jctc.8b01176
   
   for sTDA-xTB:
   S. Grimme and C. Bannwarth, J. Chem. Phys., 2016, 145, 054103.
   DOI: 10.1063/1.4959605
   
   in the mass-spec context:
   V. Asgeirsson, C. Bauer and S. Grimme, Chem. Sci., 2017, 8, 4879.
   DOI: 10.1039/c7sc00601b
   
   for metadynamics refer to:
   S. Grimme, J. Chem. Theory Comput. Article ASAP, 2019,
   DOI: 10.1021/acs.jctc.9b00143
   
   with help from (in alphabetical order)
   C. Bannwarth, F. Bohle, G. Brandenburg, E. Caldeweyher, M. Checinski,
   S. Dohm, S. Ehlert, S. Ehrlich, F. März, H. Neugebauer, J. Pisarek,
   P. Pracht, P. Shushkov, and S. Spicher.
   
 * started run on 2021/06/02 at 10:00:07.422     

           -------------------------------------------------
          |                Calculation Setup                |
           -------------------------------------------------

          program call               : /groups/kemi/koerstz/opt/xtb/6.1/bin/xtb 21.xyz --gfn2 --acc 0.2 --chrg 0
          hostname                   : node305
          coordinate file            : 21.xyz
          omp threads                :                     1
          number of atoms            :                     9
          number of electrons        :                    36
          charge                     :                     0
          spin                       :                   0.0
          first test random number   :      0.98971052380530


########################################################################
# WARNING! Please study the warnings concerning your input carefully
#  - XTBPATH is not set, using XTBHOME instead
########################################################################

           ------------------------------------------------- 
          |                 G F N 2 - x T B                 |
          | Geometry, Frequencies, Noncovalent interactions |
          |            JCTC 2018 parametrisation            |
           ------------------------------------------------- 
             k(s)              :                1.8500
             k(p)              :                2.2300
             k(d)              :                2.2300
             k(f)              :                2.0000
             kEN (H0ij)        :               -2.0000
             D4 a1             :                0.5200
             D4 a2             :                5.0000
             D4 s6             :                1.0000
             D4 s8             :                2.7000
             D4 s9             :                5.0000
             alphaj            :                2.0000

  Z AO/shell   Hii/eV     exponent
  1     Wed Apr 25 08:07:45 CEST 2018   EN: 2.200 GM2: 0.406  GM3: 0.0800  RAES: 1.40
     1s    -10.707211    1.230000
  6     Wed Apr 25 08:07:45 CEST 2018   EN: 2.550 GM2: 0.538  GM3: 0.1500  RAES: 3.00
     2s    -13.970922    2.096432
     2p    -10.063292    1.800000
  7     Wed Apr 25 08:07:45 CEST 2018   EN: 3.040 GM2: 0.461  GM3:-0.0640  RAES: 1.90
     2s    -16.686243    2.339881
     2p    -12.523956    2.014332
  8     Wed Apr 25 08:07:45 CEST 2018   EN: 3.440 GM2: 0.452  GM3:-0.0517  RAES: 1.80
     2s    -20.229985    2.439742
     2p    -15.503117    2.137023


            Z     q(EN)     CN     RAES       Cart. coordinates
     1  N   5.0   -0.46    2.00    1.90    -1.23328     1.17235    -1.07465
     2  C   4.0    0.31    3.02    3.02    -0.57890    -0.87746    -0.04108
     3  N   5.0   -0.08    2.17    1.90    -1.72418    -3.26977    -0.33158
     4  N   5.0   -0.16    1.00    1.90    -3.31718    -4.66048     0.15582
     5  O   6.0   -0.08    1.15    1.80     1.57341    -4.83009    -1.12341
     6  N   5.0   -0.16    2.02    1.90     2.86305    -3.54832     0.52320
     7  C   4.0    0.13    3.04    3.02     1.82299    -1.42243     1.29258
     8  H   1.0    0.33    1.00    1.43    -2.80038     1.19375    -2.19864
     9  H   1.0    0.17    0.99    1.43     2.54657    -0.25897     2.85640

           ------------------------------------------------- 
          |        Self-Consistent Charge Iterations        |
           ------------------------------------------------- 
q/qsh data taken from xtbrestart
CAMM data taken from xtbrestart

          ...................................................
          :                      SETUP                      :
          :.................................................:
          :  # basis functions                  30          :
          :  # atomic orbitals                  30          :
          :  # shells                           16          :
          :  # electrons                        36          :
          :  max. iterations                   250          :
          :  Hamiltonian                  GFN2-xTB          :
          :  restarted?                       true          :
          :  GBSA solvation                  false          :
          :  PC potential                    false          :
          :  electronic temp.          300.0000000     K    :
          :  accuracy                    0.2000000          :
          :  -> integral cutoff          0.3198970E+02      :
          :  -> integral neglect         0.2000000E-08      :
          :  -> SCF convergence          0.2000000E-06 Eh   :
          :  -> wf. convergence          0.2000000E-04 e    :
          :  Broyden damping             0.4000000          :
          ...................................................

 iter      E             dE          RMSdq      gap      omega  full diag
   1    -20.9052885 -0.209053E+02  0.668E+00    1.54       0.0  T
   2    -20.9539358 -0.486473E-01  0.434E+00    0.35       1.0  T
   3    -21.0055462 -0.516104E-01  0.286E+00    1.32       1.0  T
   4    -21.0187330 -0.131867E-01  0.171E+00    0.49       1.0  T
   5    -21.0438138 -0.250808E-01  0.386E-01    0.69       1.0  T
   6    -21.0443653 -0.551518E-03  0.150E-01    0.66       1.0  T
   7    -21.0443649  0.428366E-06  0.629E-02    0.66       1.0  T
   8    -21.0443856 -0.207448E-04  0.191E-02    0.65       1.7  T
   9    -21.0443858 -0.190543E-06  0.697E-03    0.65       4.8  T
  10    -21.0443860 -0.213379E-06  0.254E-03    0.65      13.1  T
  11    -21.0443860 -0.605996E-08  0.106E-03    0.65      31.5  T
  12    -21.0443860 -0.203318E-08  0.538E-04    0.65      62.0  T
  13    -21.0443860 -0.194802E-08  0.203E-04    0.65     164.5  T
  14    -21.0443860 -0.995186E-10  0.369E-05    0.65     902.3  T
  15    -21.0443860  0.511591E-12  0.241E-05    0.65    1383.8  T

   *** convergence criteria satisfied after 15 iterations ***

         #    Occupation            Energy/Eh            Energy/eV
      -------------------------------------------------------------
         1        2.0000           -0.7505492             -20.4235
       ...           ...                  ...                  ...
        12        2.0000           -0.5416308             -14.7385
        13        2.0000           -0.5230186             -14.2321
        14        2.0000           -0.5146918             -14.0055
        15        2.0000           -0.4914787             -13.3738
        16        2.0000           -0.4547858             -12.3754
        17        2.0000           -0.4294994             -11.6873
        18        2.0000           -0.3940238             -10.7219 (HOMO)
        19        0.0000           -0.3700102             -10.0685 (LUMO)
        20                         -0.3264035              -8.8819
        21                         -0.2976923              -8.1006
        22                         -0.2358001              -6.4164
        23                         -0.0024944              -0.0679
       ...                                ...                  ...
        30                          0.6978066              18.9883
      -------------------------------------------------------------
                  HL-Gap            0.0240136 Eh            0.6534 eV
             Fermi-level           -0.3820170 Eh          -10.3952 eV

 SCC (total)                   0 d,  0 h,  0 min,  0.008 sec
 SCC setup                      ...        0 min,  0.000 sec (  1.549%)
 Dispersion                     ...        0 min,  0.000 sec (  0.788%)
 integral evaluation            ...        0 min,  0.001 sec ( 13.796%)
 zeroth order Hamiltonian       ...        0 min,  0.000 sec (  0.394%)
 iterations                     ...        0 min,  0.004 sec ( 54.430%)
 molecular gradient             ...        0 min,  0.002 sec ( 26.850%)
 printout                       ...        0 min,  0.000 sec (  1.756%)

         :::::::::::::::::::::::::::::::::::::::::::::::::::::
         ::                     SUMMARY                     ::
         :::::::::::::::::::::::::::::::::::::::::::::::::::::
         :: total energy              -20.837291438645 Eh   ::
         :: gradient norm               0.079483893794 Eh/α ::
         :: HOMO-LUMO gap               0.653442976695 eV   ::
         ::.................................................::
         :: SCC energy                -21.044386048358 Eh   ::
         :: -> isotropic ES             0.034170079655 Eh   ::
         :: -> anisotropic ES           0.001835553203 Eh   ::
         :: -> anisotropic XC           0.033229417189 Eh   ::
         :: -> dispersion              -0.006105541186 Eh   ::
         :: repulsion energy            0.207089906380 Eh   ::
         :: add. restraining            0.000000000000 Eh   ::
         :::::::::::::::::::::::::::::::::::::::::::::::::::::

           -------------------------------------------------
          |                Property Printout                |
           -------------------------------------------------

    * Orbital Energies and Occupations

         #    Occupation            Energy/Eh            Energy/eV
      -------------------------------------------------------------
         1        2.0000           -0.7505492             -20.4235
       ...           ...                  ...                  ...
         6        2.0000           -0.6382740             -17.3683
         7        2.0000           -0.6284357             -17.1006
         8        2.0000           -0.6061394             -16.4939
         9        2.0000           -0.5846453             -15.9090
        10        2.0000           -0.5655997             -15.3908
        11        2.0000           -0.5506925             -14.9851
        12        2.0000           -0.5416308             -14.7385
        13        2.0000           -0.5230186             -14.2321
        14        2.0000           -0.5146918             -14.0055
        15        2.0000           -0.4914787             -13.3738
        16        2.0000           -0.4547858             -12.3754
        17        2.0000           -0.4294994             -11.6873
        18        2.0000           -0.3940238             -10.7219 (HOMO)
        19        0.0000           -0.3700102             -10.0685 (LUMO)
        20                         -0.3264035              -8.8819
        21                         -0.2976923              -8.1006
        22                         -0.2358001              -6.4164
        23                         -0.0024944              -0.0679
        24                          0.0189887               0.5167
        25                          0.0448143               1.2195
        26                          0.1634757               4.4484
        27                          0.2854878               7.7685
        28                          0.3426498               9.3240
        29                          0.5184262              14.1071
        30                          0.6978066              18.9883
      -------------------------------------------------------------
                  HL-Gap            0.0240136 Eh            0.6534 eV
             Fermi-level           -0.3820170 Eh          -10.3952 eV

   #   Z        covCN         q      C6AA      α(0)
   1   7 N      1.775    -0.267    27.742     7.800
   2   6 C      2.817     0.179    24.159     8.053
   3   7 N      2.044     0.202    18.422     6.367
   4   7 N      0.983    -0.081    22.465     6.818
   5   8 O      1.056    -0.321    20.081     6.013
   6   7 N      1.850     0.023    21.523     6.876
   7   6 C      2.857     0.003    27.952     8.666
   8   1 H      0.860     0.178     1.226     1.734
   9   1 H      0.923     0.084     1.936     2.176

 Mol. C6AA /au·bohr⁶  :       1299.870174
 Mol. C8AA /au·bohr⁸  :      29695.856209
 Mol. α(0) /au        :         54.502188


Wiberg/Mayer (AO) data.
largest (>0.10) Wiberg bond orders for each atom
          total WBO             WBO to atom ...
     1  N   3.101        C    2 1.837    H    8 0.936
     2  C   3.942        N    1 1.837    C    7 1.027    N    3 0.959
     3  N   3.770        N    4 2.353    C    2 0.959    O    5 0.281
     4  N   2.925        N    3 2.353    O    5 0.274
     5  O   2.177        N    6 1.311    N    3 0.281    N    4 0.274    C    7 0.184
     6  N   3.194        C    7 1.624    O    5 1.311
     7  C   3.959        N    6 1.624    C    2 1.027    H    9 0.953    O    5 0.184
     8  H   0.968        N    1 0.936
     9  H   0.993        C    7 0.953

molecular dipole:
                 x           y           z       tot (Debye)
 q only:       -0.571       0.905       0.426
   full:       -0.862       0.963       0.353       3.406
molecular quadrupole (traceless):
                xx          xy          yy          xz          yz          zz
 q only:        3.663       2.863      -7.562       3.191      -2.554       3.899
  q+dip:        3.587       2.760     -10.228       4.030      -2.209       6.641
   full:        3.416       2.557     -11.159       3.504      -2.117       7.743


           -------------------------------------------------
          | TOTAL ENERGY              -20.837291438645 Eh   |
          | GRADIENT NORM               0.079483893794 Eh/α |
          | HOMO-LUMO GAP               0.653442976695 eV   |
           -------------------------------------------------

------------------------------------------------------------------------
 * finished run on 2021/06/02 at 10:00:07.439     
------------------------------------------------------------------------
 total:
 * wall-time:     0 d,  0 h,  0 min,  0.017 sec
 *  cpu-time:     0 d,  0 h,  0 min,  0.016 sec
 * ratio c/w:     0.986 speedup
 SCF:
 * wall-time:     0 d,  0 h,  0 min,  0.008 sec
 *  cpu-time:     0 d,  0 h,  0 min,  0.008 sec
 * ratio c/w:     0.999 speedup

