      -----------------------------------------------------------      
     |                   =====================                   |     
     |                           x T B                           |     
     |                   =====================                   |     
     |                         S. Grimme                         |     
     |          Mulliken Center for Theoretical Chemistry        |     
     |                    University of Bonn                     |     
     |                 Version 6.1.4 (SAW190525)                 |     
      -----------------------------------------------------------      

   This program is distributed in the hope that it will be useful,
   but WITHOUT ANY WARRANTY; without even the implied warranty of
   MERCHANTABILITY or FITNESS FOR A PARTICULAR PURPOSE.
   
   FOR NON-COMMERCIAL, ACADEMIA USE ONLY.
   
   Cite this work as:
   S. Grimme, C. Bannwarth, P. Shushkov, J. Comput. Theory Chem., 2017,
   13, 1989-2009. DOI: 10.1021/acs.jctc.7b00118
   C. Bannwarth, S. Ehlert and S. Grimme., J. Comput. Theory Chem., 2019,
   just accepted. DOI: 10.1021/acs.jctc.8b01176
   
   for sTDA-xTB:
   S. Grimme and C. Bannwarth, J. Chem. Phys., 2016, 145, 054103.
   DOI: 10.1063/1.4959605
   
   in the mass-spec context:
   V. Asgeirsson, C. Bauer and S. Grimme, Chem. Sci., 2017, 8, 4879.
   DOI: 10.1039/c7sc00601b
   
   for metadynamics refer to:
   S. Grimme, J. Chem. Theory Comput. Article ASAP, 2019,
   DOI: 10.1021/acs.jctc.9b00143
   
   with help from (in alphabetical order)
   C. Bannwarth, F. Bohle, G. Brandenburg, E. Caldeweyher, M. Checinski,
   S. Dohm, S. Ehlert, S. Ehrlich, F. März, H. Neugebauer, J. Pisarek,
   P. Pracht, P. Shushkov, and S. Spicher.
   
 * started run on 2021/06/02 at 10:00:06.706     

           -------------------------------------------------
          |                Calculation Setup                |
           -------------------------------------------------

          program call               : /groups/kemi/koerstz/opt/xtb/6.1/bin/xtb 25.xyz --gfn2 --acc 0.2 --chrg 0
          hostname                   : node305
          coordinate file            : 25.xyz
          omp threads                :                     1
          number of atoms            :                     9
          number of electrons        :                    36
          charge                     :                     0
          spin                       :                   0.0
          first test random number   :      0.56135076364261


########################################################################
# WARNING! Please study the warnings concerning your input carefully
#  - XTBPATH is not set, using XTBHOME instead
########################################################################

           ------------------------------------------------- 
          |                 G F N 2 - x T B                 |
          | Geometry, Frequencies, Noncovalent interactions |
          |            JCTC 2018 parametrisation            |
           ------------------------------------------------- 
             k(s)              :                1.8500
             k(p)              :                2.2300
             k(d)              :                2.2300
             k(f)              :                2.0000
             kEN (H0ij)        :               -2.0000
             D4 a1             :                0.5200
             D4 a2             :                5.0000
             D4 s6             :                1.0000
             D4 s8             :                2.7000
             D4 s9             :                5.0000
             alphaj            :                2.0000

  Z AO/shell   Hii/eV     exponent
  1     Wed Apr 25 08:07:45 CEST 2018   EN: 2.200 GM2: 0.406  GM3: 0.0800  RAES: 1.40
     1s    -10.707211    1.230000
  6     Wed Apr 25 08:07:45 CEST 2018   EN: 2.550 GM2: 0.538  GM3: 0.1500  RAES: 3.00
     2s    -13.970922    2.096432
     2p    -10.063292    1.800000
  7     Wed Apr 25 08:07:45 CEST 2018   EN: 3.040 GM2: 0.461  GM3:-0.0640  RAES: 1.90
     2s    -16.686243    2.339881
     2p    -12.523956    2.014332
  8     Wed Apr 25 08:07:45 CEST 2018   EN: 3.440 GM2: 0.452  GM3:-0.0517  RAES: 1.80
     2s    -20.229985    2.439742
     2p    -15.503117    2.137023


            Z     q(EN)     CN     RAES       Cart. coordinates
     1  N   5.0   -0.45    2.01    1.90    -0.95688     0.80078    -1.50398
     2  C   4.0    0.34    3.04    3.02    -0.69310    -1.08370    -0.14842
     3  N   5.0   -0.12    2.01    1.90    -2.49314    -3.01649     0.21029
     4  N   5.0   -0.15    1.00    1.90    -3.27244    -4.50817     1.56407
     5  O   6.0   -0.11    1.03    1.80     2.43347    -3.69673    -2.14670
     6  N   5.0   -0.15    2.04    1.90     3.08945    -3.06203     0.06256
     7  C   4.0    0.14    3.03    3.02     1.64168    -1.69537     1.35555
     8  H   1.0    0.33    1.00    1.43    -2.46519     0.94427    -2.67878
     9  H   1.0    0.17    0.99    1.43     1.86828    -1.18397     3.34406

           ------------------------------------------------- 
          |        Self-Consistent Charge Iterations        |
           ------------------------------------------------- 
q/qsh data taken from xtbrestart
CAMM data taken from xtbrestart

          ...................................................
          :                      SETUP                      :
          :.................................................:
          :  # basis functions                  30          :
          :  # atomic orbitals                  30          :
          :  # shells                           16          :
          :  # electrons                        36          :
          :  max. iterations                   250          :
          :  Hamiltonian                  GFN2-xTB          :
          :  restarted?                       true          :
          :  GBSA solvation                  false          :
          :  PC potential                    false          :
          :  electronic temp.          300.0000000     K    :
          :  accuracy                    0.2000000          :
          :  -> integral cutoff          0.3198970E+02      :
          :  -> integral neglect         0.2000000E-08      :
          :  -> SCF convergence          0.2000000E-06 Eh   :
          :  -> wf. convergence          0.2000000E-04 e    :
          :  Broyden damping             0.4000000          :
          ...................................................

 iter      E             dE          RMSdq      gap      omega  full diag
   1    -20.9395803 -0.209396E+02  0.452E+00    1.65       0.0  T
   2    -19.3612897  0.157829E+01  0.106E+01    0.44       1.0  T
   3    -20.9644191 -0.160313E+01  0.316E+00    1.36       1.0  T
   4    -20.9962939 -0.318748E-01  0.228E+00    0.85       1.0  T
   5    -21.0426717 -0.463778E-01  0.119E+00    0.40       1.0  T
   6    -21.0440499 -0.137819E-02  0.108E+00    0.37       1.0  T
   7    -21.0392016  0.484835E-02  0.116E+00    0.12       1.0  T
   8    -21.0528581 -0.136566E-01  0.333E-01    0.17       1.0  T
   9    -21.0528909 -0.327397E-04  0.163E-01    0.13       1.0  T
  10    -21.0523941  0.496760E-03  0.244E-01    0.13       1.0  T
  11    -21.0523846  0.948481E-05  0.230E-01    0.13       1.0  T
  12    -21.0528360 -0.451347E-03  0.125E-01    0.16       1.0  T
  13    -21.0530021 -0.166179E-03  0.268E-02    0.14       1.2  T
  14    -21.0530072 -0.506297E-05  0.158E-02    0.14       2.1  T
  15    -21.0530098 -0.263215E-05  0.617E-03    0.15       5.4  T
  16    -21.0530103 -0.442388E-06  0.632E-04    0.15      52.7  T
  17    -21.0530103 -0.190476E-08  0.457E-04    0.15      72.9  T
  18    -21.0530103 -0.233339E-08  0.557E-05    0.15     598.6  T
  19    -21.0530103  0.503526E-10  0.691E-05    0.15     482.2  T

   *** convergence criteria satisfied after 19 iterations ***

         #    Occupation            Energy/Eh            Energy/eV
      -------------------------------------------------------------
         1        2.0000           -0.7518569             -20.4591
       ...           ...                  ...                  ...
        12        2.0000           -0.5484882             -14.9251
        13        2.0000           -0.5290558             -14.3963
        14        2.0000           -0.5168490             -14.0642
        15        2.0000           -0.4855930             -13.2137
        16        2.0000           -0.4498635             -12.2414
        17        2.0000           -0.4154779             -11.3057
        18        1.8876           -0.3768276             -10.2540 (HOMO)
        19        0.1124           -0.3714668             -10.1081 (LUMO)
        20                         -0.3501451              -9.5279
        21                         -0.2549575              -6.9377
        22                         -0.2518392              -6.8529
        23                          0.0130666               0.3556
       ...                                ...                  ...
        30                          0.6827764              18.5793
      -------------------------------------------------------------
                  HL-Gap            0.0053608 Eh            0.1459 eV
             Fermi-level           -0.3741472 Eh          -10.1811 eV

 SCC (total)                   0 d,  0 h,  0 min,  0.009 sec
 SCC setup                      ...        0 min,  0.000 sec (  1.502%)
 Dispersion                     ...        0 min,  0.000 sec (  0.665%)
 integral evaluation            ...        0 min,  0.001 sec ( 12.466%)
 zeroth order Hamiltonian       ...        0 min,  0.000 sec (  0.361%)
 iterations                     ...        0 min,  0.005 sec ( 60.030%)
 molecular gradient             ...        0 min,  0.002 sec ( 22.638%)
 printout                       ...        0 min,  0.000 sec (  1.946%)

         :::::::::::::::::::::::::::::::::::::::::::::::::::::
         ::                     SUMMARY                     ::
         :::::::::::::::::::::::::::::::::::::::::::::::::::::
         :: total energy              -20.815311794027 Eh   ::
         :: gradient norm               0.063266955645 Eh/α ::
         :: HOMO-LUMO gap               0.145874940859 eV   ::
         ::.................................................::
         :: SCC energy                -21.053010285391 Eh   ::
         :: -> isotropic ES             0.039480762681 Eh   ::
         :: -> anisotropic ES           0.000739671468 Eh   ::
         :: -> anisotropic XC           0.027543330339 Eh   ::
         :: -> dispersion              -0.006106122440 Eh   ::
         :: repulsion energy            0.237692729599 Eh   ::
         :: add. restraining            0.000000000000 Eh   ::
         :::::::::::::::::::::::::::::::::::::::::::::::::::::

           -------------------------------------------------
          |                Property Printout                |
           -------------------------------------------------

    * Orbital Energies and Occupations

         #    Occupation            Energy/Eh            Energy/eV
      -------------------------------------------------------------
         1        2.0000           -0.7518569             -20.4591
       ...           ...                  ...                  ...
         6        2.0000           -0.6348259             -17.2745
         7        2.0000           -0.6198501             -16.8670
         8        2.0000           -0.5976009             -16.2615
         9        2.0000           -0.5838025             -15.8861
        10        2.0000           -0.5666776             -15.4201
        11        2.0000           -0.5586308             -15.2011
        12        2.0000           -0.5484882             -14.9251
        13        2.0000           -0.5290558             -14.3963
        14        2.0000           -0.5168490             -14.0642
        15        2.0000           -0.4855930             -13.2137
        16        2.0000           -0.4498635             -12.2414
        17        2.0000           -0.4154779             -11.3057
        18        1.8876           -0.3768276             -10.2540 (HOMO)
        19        0.1124           -0.3714668             -10.1081 (LUMO)
        20                         -0.3501451              -9.5279
        21                         -0.2549575              -6.9377
        22                         -0.2518392              -6.8529
        23                          0.0130666               0.3556
        24                          0.0233927               0.6365
        25                          0.0751779               2.0457
        26                          0.1671876               4.5494
        27                          0.3304226               8.9913
        28                          0.5238497              14.2547
        29                          0.5996493              16.3173
        30                          0.6827764              18.5793
      -------------------------------------------------------------
                  HL-Gap            0.0053608 Eh            0.1459 eV
             Fermi-level           -0.3741472 Eh          -10.1811 eV

   #   Z        covCN         q      C6AA      α(0)
   1   7 N      1.778    -0.238    27.043     7.701
   2   6 C      2.839     0.199    23.774     7.991
   3   7 N      1.903     0.113    19.933     6.619
   4   7 N      0.984    -0.060    22.051     6.754
   5   8 O      0.946    -0.381    21.260     6.184
   6   7 N      1.872     0.107    20.030     6.634
   7   6 C      2.846    -0.012    28.299     8.719
   8   1 H      0.860     0.195     1.131     1.666
   9   1 H      0.924     0.077     2.014     2.219

 Mol. C6AA /au·bohr⁶  :       1300.226413
 Mol. C8AA /au·bohr⁸  :      29699.867441
 Mol. α(0) /au        :         54.487048


Wiberg/Mayer (AO) data.
largest (>0.10) Wiberg bond orders for each atom
          total WBO             WBO to atom ...
     1  N   3.106        C    2 1.910    H    8 0.922    N    4 0.108
     2  C   3.916        N    1 1.910    N    3 0.975    C    7 0.884
     3  N   3.586        N    4 2.307    C    2 0.975
     4  N   2.856        N    3 2.307    N    6 0.149    O    5 0.143    N    1 0.108
     5  O   1.944        N    6 1.367    C    7 0.273    N    4 0.143
     6  N   3.403        C    7 1.691    O    5 1.367    N    4 0.149
     7  C   3.926        N    6 1.691    H    9 0.947    C    2 0.884    O    5 0.273
     8  H   0.962        N    1 0.922
     9  H   0.994        C    7 0.947

molecular dipole:
                 x           y           z       tot (Debye)
 q only:       -0.947       0.718       0.800
   full:       -1.197       0.724       0.830       4.134
molecular quadrupole (traceless):
                xx          xy          yy          xz          yz          zz
 q only:        2.255       3.169      -4.032       5.518      -4.714       1.776
  q+dip:        2.345       2.521      -5.696       7.535      -4.450       3.351
   full:        2.482       2.023      -5.721       7.266      -3.550       3.239


           -------------------------------------------------
          | TOTAL ENERGY              -20.815311794027 Eh   |
          | GRADIENT NORM               0.063266955645 Eh/α |
          | HOMO-LUMO GAP               0.145874940859 eV   |
           -------------------------------------------------

------------------------------------------------------------------------
 * finished run on 2021/06/02 at 10:00:06.723     
------------------------------------------------------------------------
 total:
 * wall-time:     0 d,  0 h,  0 min,  0.016 sec
 *  cpu-time:     0 d,  0 h,  0 min,  0.016 sec
 * ratio c/w:     0.983 speedup
 SCF:
 * wall-time:     0 d,  0 h,  0 min,  0.009 sec
 *  cpu-time:     0 d,  0 h,  0 min,  0.009 sec
 * ratio c/w:     1.000 speedup

