      -----------------------------------------------------------      
     |                   =====================                   |     
     |                           x T B                           |     
     |                   =====================                   |     
     |                         S. Grimme                         |     
     |          Mulliken Center for Theoretical Chemistry        |     
     |                    University of Bonn                     |     
     |                 Version 6.1.4 (SAW190525)                 |     
      -----------------------------------------------------------      

   This program is distributed in the hope that it will be useful,
   but WITHOUT ANY WARRANTY; without even the implied warranty of
   MERCHANTABILITY or FITNESS FOR A PARTICULAR PURPOSE.
   
   FOR NON-COMMERCIAL, ACADEMIA USE ONLY.
   
   Cite this work as:
   S. Grimme, C. Bannwarth, P. Shushkov, J. Comput. Theory Chem., 2017,
   13, 1989-2009. DOI: 10.1021/acs.jctc.7b00118
   C. Bannwarth, S. Ehlert and S. Grimme., J. Comput. Theory Chem., 2019,
   just accepted. DOI: 10.1021/acs.jctc.8b01176
   
   for sTDA-xTB:
   S. Grimme and C. Bannwarth, J. Chem. Phys., 2016, 145, 054103.
   DOI: 10.1063/1.4959605
   
   in the mass-spec context:
   V. Asgeirsson, C. Bauer and S. Grimme, Chem. Sci., 2017, 8, 4879.
   DOI: 10.1039/c7sc00601b
   
   for metadynamics refer to:
   S. Grimme, J. Chem. Theory Comput. Article ASAP, 2019,
   DOI: 10.1021/acs.jctc.9b00143
   
   with help from (in alphabetical order)
   C. Bannwarth, F. Bohle, G. Brandenburg, E. Caldeweyher, M. Checinski,
   S. Dohm, S. Ehlert, S. Ehrlich, F. März, H. Neugebauer, J. Pisarek,
   P. Pracht, P. Shushkov, and S. Spicher.
   
 * started run on 2021/06/02 at 10:00:07.380     

           -------------------------------------------------
          |                Calculation Setup                |
           -------------------------------------------------

          program call               : /groups/kemi/koerstz/opt/xtb/6.1/bin/xtb 26.xyz --gfn2 --acc 0.2 --chrg 0
          hostname                   : node305
          coordinate file            : 26.xyz
          omp threads                :                     1
          number of atoms            :                     9
          number of electrons        :                    36
          charge                     :                     0
          spin                       :                   0.0
          first test random number   :      0.10476281070376


########################################################################
# WARNING! Please study the warnings concerning your input carefully
#  - XTBPATH is not set, using XTBHOME instead
########################################################################

           ------------------------------------------------- 
          |                 G F N 2 - x T B                 |
          | Geometry, Frequencies, Noncovalent interactions |
          |            JCTC 2018 parametrisation            |
           ------------------------------------------------- 
             k(s)              :                1.8500
             k(p)              :                2.2300
             k(d)              :                2.2300
             k(f)              :                2.0000
             kEN (H0ij)        :               -2.0000
             D4 a1             :                0.5200
             D4 a2             :                5.0000
             D4 s6             :                1.0000
             D4 s8             :                2.7000
             D4 s9             :                5.0000
             alphaj            :                2.0000

  Z AO/shell   Hii/eV     exponent
  1     Wed Apr 25 08:07:45 CEST 2018   EN: 2.200 GM2: 0.406  GM3: 0.0800  RAES: 1.40
     1s    -10.707211    1.230000
  6     Wed Apr 25 08:07:45 CEST 2018   EN: 2.550 GM2: 0.538  GM3: 0.1500  RAES: 3.00
     2s    -13.970922    2.096432
     2p    -10.063292    1.800000
  7     Wed Apr 25 08:07:45 CEST 2018   EN: 3.040 GM2: 0.461  GM3:-0.0640  RAES: 1.90
     2s    -16.686243    2.339881
     2p    -12.523956    2.014332
  8     Wed Apr 25 08:07:45 CEST 2018   EN: 3.440 GM2: 0.452  GM3:-0.0517  RAES: 1.80
     2s    -20.229985    2.439742
     2p    -15.503117    2.137023


            Z     q(EN)     CN     RAES       Cart. coordinates
     1  N   5.0   -0.43    2.00    1.90    -0.94215     0.64051    -1.60790
     2  C   4.0    0.32    3.01    3.02    -0.90815    -1.01097     0.10236
     3  N   5.0   -0.12    2.01    1.90    -2.73227    -2.97545     0.44842
     4  N   5.0   -0.16    1.01    1.90    -3.49016    -4.23380     2.00909
     5  O   6.0   -0.10    1.01    1.80     3.24183    -3.31735    -2.41604
     6  N   5.0   -0.15    2.01    1.90     3.18250    -2.81583    -0.14788
     7  C   4.0    0.15    3.02    3.02     1.49843    -1.89824     1.25874
     8  H   1.0    0.32    1.00    1.43    -2.42877     0.75920    -2.86397
     9  H   1.0    0.17    0.99    1.43     1.73087    -1.64948     3.27583

           ------------------------------------------------- 
          |        Self-Consistent Charge Iterations        |
           ------------------------------------------------- 
q/qsh data taken from xtbrestart
CAMM data taken from xtbrestart

          ...................................................
          :                      SETUP                      :
          :.................................................:
          :  # basis functions                  30          :
          :  # atomic orbitals                  30          :
          :  # shells                           16          :
          :  # electrons                        36          :
          :  max. iterations                   250          :
          :  Hamiltonian                  GFN2-xTB          :
          :  restarted?                       true          :
          :  GBSA solvation                  false          :
          :  PC potential                    false          :
          :  electronic temp.          300.0000000     K    :
          :  accuracy                    0.2000000          :
          :  -> integral cutoff          0.3198970E+02      :
          :  -> integral neglect         0.2000000E-08      :
          :  -> SCF convergence          0.2000000E-06 Eh   :
          :  -> wf. convergence          0.2000000E-04 e    :
          :  Broyden damping             0.4000000          :
          ...................................................

 iter      E             dE          RMSdq      gap      omega  full diag
   1    -20.6721830 -0.206722E+02  0.731E+00    0.75       0.0  T
   2    -20.6823311 -0.101481E-01  0.714E+00    2.04       1.0  T
   3    -20.9685668 -0.286236E+00  0.367E+00    1.45       1.0  T
   4    -20.8381388  0.130428E+00  0.429E+00    0.64       1.0  T
   5    -21.0418969 -0.203758E+00  0.169E+00    0.86       1.0  T
   6    -21.0700114 -0.281145E-01  0.379E-01    0.65       1.0  T
   7    -21.0655397  0.447174E-02  0.652E-01    0.70       1.0  T
   8    -21.0701186 -0.457889E-02  0.167E-01    0.62       1.0  T
   9    -21.0702044 -0.857997E-04  0.131E-01    0.62       1.0  T
  10    -21.0704181 -0.213788E-03  0.266E-02    0.63       1.3  T
  11    -21.0704254 -0.728965E-05  0.101E-02    0.63       3.3  T
  12    -21.0704256 -0.135590E-06  0.853E-03    0.63       3.9  T
  13    -21.0704263 -0.686349E-06  0.448E-03    0.63       7.4  T
  14    -21.0704264 -0.120268E-06  0.328E-03    0.63      10.2  T
  15    -21.0704265 -0.137841E-06  0.115E-04    0.63     289.1  T
  16    -21.0704265 -0.167866E-10  0.555E-05    0.63     600.6  T

   *** convergence criteria satisfied after 16 iterations ***

         #    Occupation            Energy/Eh            Energy/eV
      -------------------------------------------------------------
         1        2.0000           -0.7466486             -20.3173
       ...           ...                  ...                  ...
        12        2.0000           -0.5468977             -14.8818
        13        2.0000           -0.5193975             -14.1335
        14        2.0000           -0.5108250             -13.9003
        15        2.0000           -0.4905398             -13.3483
        16        2.0000           -0.4376616             -11.9094
        17        2.0000           -0.4272250             -11.6254
        18        2.0000           -0.3804410             -10.3523 (HOMO)
        19        0.0000           -0.3574536              -9.7268 (LUMO)
        20                         -0.3416623              -9.2971
        21                         -0.2680902              -7.2951
        22                         -0.2399172              -6.5285
        23                          0.0254637               0.6929
       ...                                ...                  ...
        30                          0.6908601              18.7993
      -------------------------------------------------------------
                  HL-Gap            0.0229874 Eh            0.6255 eV
             Fermi-level           -0.3689473 Eh          -10.0396 eV

 SCC (total)                   0 d,  0 h,  0 min,  0.008 sec
 SCC setup                      ...        0 min,  0.000 sec (  1.563%)
 Dispersion                     ...        0 min,  0.000 sec (  0.682%)
 integral evaluation            ...        0 min,  0.001 sec ( 13.525%)
 zeroth order Hamiltonian       ...        0 min,  0.000 sec (  0.391%)
 iterations                     ...        0 min,  0.005 sec ( 57.549%)
 molecular gradient             ...        0 min,  0.002 sec ( 23.932%)
 printout                       ...        0 min,  0.000 sec (  1.929%)

         :::::::::::::::::::::::::::::::::::::::::::::::::::::
         ::                     SUMMARY                     ::
         :::::::::::::::::::::::::::::::::::::::::::::::::::::
         :: total energy              -20.834145953053 Eh   ::
         :: gradient norm               0.055925248914 Eh/α ::
         :: HOMO-LUMO gap               0.625520169733 eV   ::
         ::.................................................::
         :: SCC energy                -21.070426508782 Eh   ::
         :: -> isotropic ES             0.028950544487 Eh   ::
         :: -> anisotropic ES           0.003444320272 Eh   ::
         :: -> anisotropic XC           0.026185214632 Eh   ::
         :: -> dispersion              -0.005934959627 Eh   ::
         :: repulsion energy            0.236274193569 Eh   ::
         :: add. restraining            0.000000000000 Eh   ::
         :::::::::::::::::::::::::::::::::::::::::::::::::::::

           -------------------------------------------------
          |                Property Printout                |
           -------------------------------------------------

    * Orbital Energies and Occupations

         #    Occupation            Energy/Eh            Energy/eV
      -------------------------------------------------------------
         1        2.0000           -0.7466486             -20.3173
       ...           ...                  ...                  ...
         6        2.0000           -0.6342039             -17.2576
         7        2.0000           -0.6112269             -16.6323
         8        2.0000           -0.5943951             -16.1743
         9        2.0000           -0.5878652             -15.9966
        10        2.0000           -0.5787131             -15.7476
        11        2.0000           -0.5722840             -15.5726
        12        2.0000           -0.5468977             -14.8818
        13        2.0000           -0.5193975             -14.1335
        14        2.0000           -0.5108250             -13.9003
        15        2.0000           -0.4905398             -13.3483
        16        2.0000           -0.4376616             -11.9094
        17        2.0000           -0.4272250             -11.6254
        18        2.0000           -0.3804410             -10.3523 (HOMO)
        19        0.0000           -0.3574536              -9.7268 (LUMO)
        20                         -0.3416623              -9.2971
        21                         -0.2680902              -7.2951
        22                         -0.2399172              -6.5285
        23                          0.0254637               0.6929
        24                          0.0331783               0.9028
        25                          0.0837600               2.2792
        26                          0.1883174               5.1244
        27                          0.3274590               8.9106
        28                          0.5226137              14.2210
        29                          0.6031327              16.4121
        30                          0.6908601              18.7993
      -------------------------------------------------------------
                  HL-Gap            0.0229874 Eh            0.6255 eV
             Fermi-level           -0.3689473 Eh          -10.0396 eV

   #   Z        covCN         q      C6AA      α(0)
   1   7 N      1.777    -0.263    27.659     7.788
   2   6 C      2.811     0.154    24.663     8.137
   3   7 N      1.904     0.103    20.103     6.647
   4   7 N      0.986    -0.085    22.532     6.826
   5   8 O      0.928    -0.306    19.866     5.977
   6   7 N      1.843     0.156    19.209     6.495
   7   6 C      2.837    -0.021    28.529     8.753
   8   1 H      0.859     0.181     1.207     1.721
   9   1 H      0.925     0.082     1.958     2.188

 Mol. C6AA /au·bohr⁶  :       1300.949755
 Mol. C8AA /au·bohr⁸  :      29746.797149
 Mol. α(0) /au        :         54.533422


Wiberg/Mayer (AO) data.
largest (>0.10) Wiberg bond orders for each atom
          total WBO             WBO to atom ...
     1  N   3.167        C    2 1.823    H    8 0.925    N    6 0.122
     2  C   3.920        N    1 1.823    N    3 0.959    C    7 0.900    N    4 0.108
     3  N   3.603        N    4 2.340    C    2 0.959
     4  N   2.956        N    3 2.340    O    5 0.176    N    6 0.168    C    2 0.108
     5  O   2.173        N    6 1.444    C    7 0.289    N    4 0.176
     6  N   3.562        C    7 1.673    O    5 1.444    N    4 0.168    N    1 0.122
     7  C   3.940        N    6 1.673    H    9 0.945    C    2 0.900    O    5 0.289
     8  H   0.967        N    1 0.925
     9  H   0.993        C    7 0.945

molecular dipole:
                 x           y           z       tot (Debye)
 q only:       -0.700       0.350       0.753
   full:       -0.988       0.364       0.760       3.301
molecular quadrupole (traceless):
                xx          xy          yy          xz          yz          zz
 q only:        0.706       1.886      -1.851       6.108      -3.498       1.145
  q+dip:        0.848       1.298      -3.201       8.562      -2.918       2.353
   full:        1.083       0.850      -2.813       8.556      -2.092       1.729


           -------------------------------------------------
          | TOTAL ENERGY              -20.834145953053 Eh   |
          | GRADIENT NORM               0.055925248914 Eh/α |
          | HOMO-LUMO GAP               0.625520169733 eV   |
           -------------------------------------------------

------------------------------------------------------------------------
 * finished run on 2021/06/02 at 10:00:07.396     
------------------------------------------------------------------------
 total:
 * wall-time:     0 d,  0 h,  0 min,  0.016 sec
 *  cpu-time:     0 d,  0 h,  0 min,  0.016 sec
 * ratio c/w:     0.987 speedup
 SCF:
 * wall-time:     0 d,  0 h,  0 min,  0.008 sec
 *  cpu-time:     0 d,  0 h,  0 min,  0.008 sec
 * ratio c/w:     1.000 speedup

