      -----------------------------------------------------------      
     |                   =====================                   |     
     |                           x T B                           |     
     |                   =====================                   |     
     |                         S. Grimme                         |     
     |          Mulliken Center for Theoretical Chemistry        |     
     |                    University of Bonn                     |     
     |                 Version 6.1.4 (SAW190525)                 |     
      -----------------------------------------------------------      

   This program is distributed in the hope that it will be useful,
   but WITHOUT ANY WARRANTY; without even the implied warranty of
   MERCHANTABILITY or FITNESS FOR A PARTICULAR PURPOSE.
   
   FOR NON-COMMERCIAL, ACADEMIA USE ONLY.
   
   Cite this work as:
   S. Grimme, C. Bannwarth, P. Shushkov, J. Comput. Theory Chem., 2017,
   13, 1989-2009. DOI: 10.1021/acs.jctc.7b00118
   C. Bannwarth, S. Ehlert and S. Grimme., J. Comput. Theory Chem., 2019,
   just accepted. DOI: 10.1021/acs.jctc.8b01176
   
   for sTDA-xTB:
   S. Grimme and C. Bannwarth, J. Chem. Phys., 2016, 145, 054103.
   DOI: 10.1063/1.4959605
   
   in the mass-spec context:
   V. Asgeirsson, C. Bauer and S. Grimme, Chem. Sci., 2017, 8, 4879.
   DOI: 10.1039/c7sc00601b
   
   for metadynamics refer to:
   S. Grimme, J. Chem. Theory Comput. Article ASAP, 2019,
   DOI: 10.1021/acs.jctc.9b00143
   
   with help from (in alphabetical order)
   C. Bannwarth, F. Bohle, G. Brandenburg, E. Caldeweyher, M. Checinski,
   S. Dohm, S. Ehlert, S. Ehrlich, F. März, H. Neugebauer, J. Pisarek,
   P. Pracht, P. Shushkov, and S. Spicher.
   
 * started run on 2021/06/02 at 10:00:06.930     

           -------------------------------------------------
          |                Calculation Setup                |
           -------------------------------------------------

          program call               : /groups/kemi/koerstz/opt/xtb/6.1/bin/xtb 27.xyz --gfn2 --acc 0.2 --chrg 0
          hostname                   : node305
          coordinate file            : 27.xyz
          omp threads                :                     1
          number of atoms            :                     9
          number of electrons        :                    36
          charge                     :                     0
          spin                       :                   0.0
          first test random number   :      0.31972454170537


########################################################################
# WARNING! Please study the warnings concerning your input carefully
#  - XTBPATH is not set, using XTBHOME instead
########################################################################

           ------------------------------------------------- 
          |                 G F N 2 - x T B                 |
          | Geometry, Frequencies, Noncovalent interactions |
          |            JCTC 2018 parametrisation            |
           ------------------------------------------------- 
             k(s)              :                1.8500
             k(p)              :                2.2300
             k(d)              :                2.2300
             k(f)              :                2.0000
             kEN (H0ij)        :               -2.0000
             D4 a1             :                0.5200
             D4 a2             :                5.0000
             D4 s6             :                1.0000
             D4 s8             :                2.7000
             D4 s9             :                5.0000
             alphaj            :                2.0000

  Z AO/shell   Hii/eV     exponent
  1     Wed Apr 25 08:07:45 CEST 2018   EN: 2.200 GM2: 0.406  GM3: 0.0800  RAES: 1.40
     1s    -10.707211    1.230000
  6     Wed Apr 25 08:07:45 CEST 2018   EN: 2.550 GM2: 0.538  GM3: 0.1500  RAES: 3.00
     2s    -13.970922    2.096432
     2p    -10.063292    1.800000
  7     Wed Apr 25 08:07:45 CEST 2018   EN: 3.040 GM2: 0.461  GM3:-0.0640  RAES: 1.90
     2s    -16.686243    2.339881
     2p    -12.523956    2.014332
  8     Wed Apr 25 08:07:45 CEST 2018   EN: 3.440 GM2: 0.452  GM3:-0.0517  RAES: 1.80
     2s    -20.229985    2.439742
     2p    -15.503117    2.137023


            Z     q(EN)     CN     RAES       Cart. coordinates
     1  N   5.0   -0.43    2.01    1.90    -0.84522     0.43488    -1.68741
     2  C   4.0    0.32    3.01    3.02    -0.93638    -1.16175     0.06466
     3  N   5.0   -0.13    2.01    1.90    -2.85834    -2.88160     0.56692
     4  N   5.0   -0.16    1.01    1.90    -3.68780    -4.12485     2.12535
     5  O   6.0   -0.10    1.00    1.80     3.28667    -2.94953    -2.49142
     6  N   5.0   -0.15    2.01    1.90     3.26235    -2.63306    -0.18943
     7  C   4.0    0.14    3.01    3.02     1.50447    -1.93088     1.31240
     8  H   1.0    0.32    1.00    1.43    -2.29809     0.61049    -2.96143
     9  H   1.0    0.17    1.00    1.43     1.72446    -1.86511     3.31901

           ------------------------------------------------- 
          |        Self-Consistent Charge Iterations        |
           ------------------------------------------------- 
q/qsh data taken from xtbrestart
CAMM data taken from xtbrestart

          ...................................................
          :                      SETUP                      :
          :.................................................:
          :  # basis functions                  30          :
          :  # atomic orbitals                  30          :
          :  # shells                           16          :
          :  # electrons                        36          :
          :  max. iterations                   250          :
          :  Hamiltonian                  GFN2-xTB          :
          :  restarted?                       true          :
          :  GBSA solvation                  false          :
          :  PC potential                    false          :
          :  electronic temp.          300.0000000     K    :
          :  accuracy                    0.2000000          :
          :  -> integral cutoff          0.3198970E+02      :
          :  -> integral neglect         0.2000000E-08      :
          :  -> SCF convergence          0.2000000E-06 Eh   :
          :  -> wf. convergence          0.2000000E-04 e    :
          :  Broyden damping             0.4000000          :
          ...................................................

 iter      E             dE          RMSdq      gap      omega  full diag
   1    -20.9657526 -0.209658E+02  0.633E+00    0.90       0.0  T
   2    -20.9905578 -0.248052E-01  0.424E+00    0.69       1.0  T
   3    -20.9089132  0.816446E-01  0.402E+00    1.51       1.0  T
   4    -20.8719736  0.369396E-01  0.408E+00    0.53       1.0  T
   5    -21.0344308 -0.162457E+00  0.179E+00    0.85       1.0  T
   6    -21.0675355 -0.331047E-01  0.482E-01    0.60       1.0  T
   7    -21.0680569 -0.521425E-03  0.338E-01    0.58       1.0  T
   8    -21.0689503 -0.893397E-03  0.113E-01    0.54       1.0  T
   9    -21.0689539 -0.353912E-05  0.719E-02    0.53       1.0  T
  10    -21.0690112 -0.573218E-04  0.155E-02    0.54       2.1  T
  11    -21.0690101  0.106803E-05  0.118E-02    0.54       2.8  T
  12    -21.0690116 -0.146072E-05  0.290E-03    0.54      11.5  T
  13    -21.0690116  0.364948E-07  0.273E-03    0.54      12.2  T
  14    -21.0690116 -0.831041E-07  0.884E-04    0.54      37.7  T
  15    -21.0690117 -0.938719E-08  0.679E-05    0.54     491.2  T
  16    -21.0690117 -0.409521E-10  0.178E-05    0.54    1873.3  T

   *** convergence criteria satisfied after 16 iterations ***

         #    Occupation            Energy/Eh            Energy/eV
      -------------------------------------------------------------
         1        2.0000           -0.7458784             -20.2964
       ...           ...                  ...                  ...
        12        2.0000           -0.5444960             -14.8165
        13        2.0000           -0.5197423             -14.1429
        14        2.0000           -0.5083185             -13.8321
        15        2.0000           -0.4935717             -13.4308
        16        2.0000           -0.4344804             -11.8228
        17        2.0000           -0.4239715             -11.5369
        18        1.9999           -0.3804788             -10.3534 (HOMO)
        19        0.0001           -0.3606677              -9.8143 (LUMO)
        20                         -0.3422358              -9.3127
        21                         -0.2720669              -7.4033
        22                         -0.2266863              -6.1684
        23                          0.0276417               0.7522
       ...                                ...                  ...
        30                          0.6906316              18.7930
      -------------------------------------------------------------
                  HL-Gap            0.0198111 Eh            0.5391 eV
             Fermi-level           -0.3705733 Eh          -10.0838 eV

 SCC (total)                   0 d,  0 h,  0 min,  0.008 sec
 SCC setup                      ...        0 min,  0.000 sec (  1.580%)
 Dispersion                     ...        0 min,  0.000 sec (  0.792%)
 integral evaluation            ...        0 min,  0.001 sec ( 15.381%)
 zeroth order Hamiltonian       ...        0 min,  0.000 sec (  0.409%)
 iterations                     ...        0 min,  0.004 sec ( 55.303%)
 molecular gradient             ...        0 min,  0.002 sec ( 24.083%)
 printout                       ...        0 min,  0.000 sec (  2.013%)

         :::::::::::::::::::::::::::::::::::::::::::::::::::::
         ::                     SUMMARY                     ::
         :::::::::::::::::::::::::::::::::::::::::::::::::::::
         :: total energy              -20.836914555318 Eh   ::
         :: gradient norm               0.040558898070 Eh/α ::
         :: HOMO-LUMO gap               0.539086170458 eV   ::
         ::.................................................::
         :: SCC energy                -21.069011653503 Eh   ::
         :: -> isotropic ES             0.028538626980 Eh   ::
         :: -> anisotropic ES           0.003387007580 Eh   ::
         :: -> anisotropic XC           0.026551688791 Eh   ::
         :: -> dispersion              -0.005907065231 Eh   ::
         :: repulsion energy            0.232091162676 Eh   ::
         :: add. restraining            0.000000000000 Eh   ::
         :::::::::::::::::::::::::::::::::::::::::::::::::::::

           -------------------------------------------------
          |                Property Printout                |
           -------------------------------------------------

    * Orbital Energies and Occupations

         #    Occupation            Energy/Eh            Energy/eV
      -------------------------------------------------------------
         1        2.0000           -0.7458784             -20.2964
       ...           ...                  ...                  ...
         6        2.0000           -0.6328574             -17.2209
         7        2.0000           -0.6123792             -16.6637
         8        2.0000           -0.5928606             -16.1326
         9        2.0000           -0.5860546             -15.9474
        10        2.0000           -0.5767085             -15.6930
        11        2.0000           -0.5685075             -15.4699
        12        2.0000           -0.5444960             -14.8165
        13        2.0000           -0.5197423             -14.1429
        14        2.0000           -0.5083185             -13.8321
        15        2.0000           -0.4935717             -13.4308
        16        2.0000           -0.4344804             -11.8228
        17        2.0000           -0.4239715             -11.5369
        18        1.9999           -0.3804788             -10.3534 (HOMO)
        19        0.0001           -0.3606677              -9.8143 (LUMO)
        20                         -0.3422358              -9.3127
        21                         -0.2720669              -7.4033
        22                         -0.2266863              -6.1684
        23                          0.0276417               0.7522
        24                          0.0557172               1.5161
        25                          0.0923548               2.5131
        26                          0.1768578               4.8125
        27                          0.3364571               9.1555
        28                          0.5039466              13.7131
        29                          0.5867943              15.9675
        30                          0.6906316              18.7930
      -------------------------------------------------------------
                  HL-Gap            0.0198111 Eh            0.5391 eV
             Fermi-level           -0.3705733 Eh          -10.0838 eV

   #   Z        covCN         q      C6AA      α(0)
   1   7 N      1.782    -0.263    27.670     7.790
   2   6 C      2.814     0.159    24.548     8.118
   3   7 N      1.900     0.107    20.024     6.634
   4   7 N      0.987    -0.090    22.621     6.839
   5   8 O      0.927    -0.299    19.729     5.957
   6   7 N      1.844     0.152    19.285     6.508
   7   6 C      2.833    -0.027    28.672     8.775
   8   1 H      0.859     0.178     1.226     1.735
   9   1 H      0.927     0.083     1.949     2.183

 Mol. C6AA /au·bohr⁶  :       1301.106575
 Mol. C8AA /au·bohr⁸  :      29749.492529
 Mol. α(0) /au        :         54.539153


Wiberg/Mayer (AO) data.
largest (>0.10) Wiberg bond orders for each atom
          total WBO             WBO to atom ...
     1  N   3.145        C    2 1.795    H    8 0.928    N    6 0.114    N    4 0.101    O    5 0.101
     2  C   3.932        N    1 1.795    N    3 1.024    C    7 0.896    N    4 0.107
     3  N   3.629        N    4 2.300    C    2 1.024
     4  N   2.948        N    3 2.300    O    5 0.182    N    6 0.176    C    2 0.107    N    1 0.101
     5  O   2.190        N    6 1.455    C    7 0.292    N    4 0.182    N    1 0.101
     6  N   3.548        C    7 1.651    O    5 1.455    N    4 0.176    N    1 0.114
     7  C   3.934        N    6 1.651    H    9 0.953    C    2 0.896    O    5 0.292
     8  H   0.968        N    1 0.928
     9  H   0.993        C    7 0.953

molecular dipole:
                 x           y           z       tot (Debye)
 q only:       -0.695       0.250       0.753
   full:       -0.999       0.251       0.769       3.266
molecular quadrupole (traceless):
                xx          xy          yy          xz          yz          zz
 q only:        0.274       1.411      -1.054       6.194      -3.136       0.780
  q+dip:        0.117       0.745      -2.032       8.828      -2.540       1.915
   full:        0.177       0.183      -1.420       8.892      -1.637       1.243


           -------------------------------------------------
          | TOTAL ENERGY              -20.836914555318 Eh   |
          | GRADIENT NORM               0.040558898070 Eh/α |
          | HOMO-LUMO GAP               0.539086170458 eV   |
           -------------------------------------------------

------------------------------------------------------------------------
 * finished run on 2021/06/02 at 10:00:06.946     
------------------------------------------------------------------------
 total:
 * wall-time:     0 d,  0 h,  0 min,  0.015 sec
 *  cpu-time:     0 d,  0 h,  0 min,  0.015 sec
 * ratio c/w:     0.986 speedup
 SCF:
 * wall-time:     0 d,  0 h,  0 min,  0.008 sec
 *  cpu-time:     0 d,  0 h,  0 min,  0.008 sec
 * ratio c/w:     1.000 speedup

