      -----------------------------------------------------------      
     |                   =====================                   |     
     |                           x T B                           |     
     |                   =====================                   |     
     |                         S. Grimme                         |     
     |          Mulliken Center for Theoretical Chemistry        |     
     |                    University of Bonn                     |     
     |                 Version 6.1.4 (SAW190525)                 |     
      -----------------------------------------------------------      

   This program is distributed in the hope that it will be useful,
   but WITHOUT ANY WARRANTY; without even the implied warranty of
   MERCHANTABILITY or FITNESS FOR A PARTICULAR PURPOSE.
   
   FOR NON-COMMERCIAL, ACADEMIA USE ONLY.
   
   Cite this work as:
   S. Grimme, C. Bannwarth, P. Shushkov, J. Comput. Theory Chem., 2017,
   13, 1989-2009. DOI: 10.1021/acs.jctc.7b00118
   C. Bannwarth, S. Ehlert and S. Grimme., J. Comput. Theory Chem., 2019,
   just accepted. DOI: 10.1021/acs.jctc.8b01176
   
   for sTDA-xTB:
   S. Grimme and C. Bannwarth, J. Chem. Phys., 2016, 145, 054103.
   DOI: 10.1063/1.4959605
   
   in the mass-spec context:
   V. Asgeirsson, C. Bauer and S. Grimme, Chem. Sci., 2017, 8, 4879.
   DOI: 10.1039/c7sc00601b
   
   for metadynamics refer to:
   S. Grimme, J. Chem. Theory Comput. Article ASAP, 2019,
   DOI: 10.1021/acs.jctc.9b00143
   
   with help from (in alphabetical order)
   C. Bannwarth, F. Bohle, G. Brandenburg, E. Caldeweyher, M. Checinski,
   S. Dohm, S. Ehlert, S. Ehrlich, F. März, H. Neugebauer, J. Pisarek,
   P. Pracht, P. Shushkov, and S. Spicher.
   
 * started run on 2021/06/02 at 10:00:06.448     

           -------------------------------------------------
          |                Calculation Setup                |
           -------------------------------------------------

          program call               : /groups/kemi/koerstz/opt/xtb/6.1/bin/xtb 28.xyz --gfn2 --acc 0.2 --chrg 0
          hostname                   : node305
          coordinate file            : 28.xyz
          omp threads                :                     1
          number of atoms            :                     9
          number of electrons        :                    36
          charge                     :                     0
          spin                       :                   0.0
          first test random number   :      0.38613887402313


########################################################################
# WARNING! Please study the warnings concerning your input carefully
#  - XTBPATH is not set, using XTBHOME instead
########################################################################

           ------------------------------------------------- 
          |                 G F N 2 - x T B                 |
          | Geometry, Frequencies, Noncovalent interactions |
          |            JCTC 2018 parametrisation            |
           ------------------------------------------------- 
             k(s)              :                1.8500
             k(p)              :                2.2300
             k(d)              :                2.2300
             k(f)              :                2.0000
             kEN (H0ij)        :               -2.0000
             D4 a1             :                0.5200
             D4 a2             :                5.0000
             D4 s6             :                1.0000
             D4 s8             :                2.7000
             D4 s9             :                5.0000
             alphaj            :                2.0000

  Z AO/shell   Hii/eV     exponent
  1     Wed Apr 25 08:07:45 CEST 2018   EN: 2.200 GM2: 0.406  GM3: 0.0800  RAES: 1.40
     1s    -10.707211    1.230000
  6     Wed Apr 25 08:07:45 CEST 2018   EN: 2.550 GM2: 0.538  GM3: 0.1500  RAES: 3.00
     2s    -13.970922    2.096432
     2p    -10.063292    1.800000
  7     Wed Apr 25 08:07:45 CEST 2018   EN: 3.040 GM2: 0.461  GM3:-0.0640  RAES: 1.90
     2s    -16.686243    2.339881
     2p    -12.523956    2.014332
  8     Wed Apr 25 08:07:45 CEST 2018   EN: 3.440 GM2: 0.452  GM3:-0.0517  RAES: 1.80
     2s    -20.229985    2.439742
     2p    -15.503117    2.137023


            Z     q(EN)     CN     RAES       Cart. coordinates
     1  N   5.0   -0.43    2.01    1.90    -0.80592     0.27365    -1.78202
     2  C   4.0    0.32    3.01    3.02    -0.93857    -1.20499     0.06150
     3  N   5.0   -0.13    2.01    1.90    -2.90060    -2.84357     0.66485
     4  N   5.0   -0.16    1.01    1.90    -3.80112    -4.01393     2.23738
     5  O   6.0   -0.09    1.01    1.80     3.35003    -2.69701    -2.49159
     6  N   5.0   -0.15    2.01    1.90     3.30669    -2.50064    -0.18194
     7  C   4.0    0.15    3.02    3.02     1.49951    -1.97097     1.27168
     8  H   1.0    0.32    1.00    1.43    -2.27850     0.51398    -3.01475
     9  H   1.0    0.17    1.00    1.43     1.72059    -2.05792     3.29353

           ------------------------------------------------- 
          |        Self-Consistent Charge Iterations        |
           ------------------------------------------------- 
q/qsh data taken from xtbrestart
CAMM data taken from xtbrestart

          ...................................................
          :                      SETUP                      :
          :.................................................:
          :  # basis functions                  30          :
          :  # atomic orbitals                  30          :
          :  # shells                           16          :
          :  # electrons                        36          :
          :  max. iterations                   250          :
          :  Hamiltonian                  GFN2-xTB          :
          :  restarted?                       true          :
          :  GBSA solvation                  false          :
          :  PC potential                    false          :
          :  electronic temp.          300.0000000     K    :
          :  accuracy                    0.2000000          :
          :  -> integral cutoff          0.3198970E+02      :
          :  -> integral neglect         0.2000000E-08      :
          :  -> SCF convergence          0.2000000E-06 Eh   :
          :  -> wf. convergence          0.2000000E-04 e    :
          :  Broyden damping             0.4000000          :
          ...................................................

 iter      E             dE          RMSdq      gap      omega  full diag
   1    -21.0322799 -0.210323E+02  0.313E+00    1.01       0.0  T
   2    -20.6329310  0.399349E+00  0.581E+00    0.48       1.0  T
   3    -21.0315570 -0.398626E+00  0.220E+00    0.98       1.0  T
   4    -21.0770426 -0.454856E-01  0.670E-01    0.62       1.0  T
   5    -21.0784947 -0.145212E-02  0.267E-01    0.56       1.0  T
   6    -21.0788935 -0.398841E-03  0.116E-01    0.56       1.0  T
   7    -21.0789144 -0.208053E-04  0.458E-02    0.55       1.0  T
   8    -21.0789335 -0.191518E-04  0.161E-02    0.55       2.1  T
   9    -21.0789335 -0.335336E-08  0.110E-02    0.55       3.0  T
  10    -21.0789344 -0.919628E-06  0.233E-03    0.55      14.3  T
  11    -21.0789344 -0.200551E-07  0.715E-04    0.55      46.6  T
  12    -21.0789344  0.364295E-10  0.434E-04    0.55      76.8  T
  13    -21.0789344 -0.607901E-09  0.246E-04    0.55     135.7  T
  14    -21.0789344 -0.607873E-09  0.466E-05    0.55     715.0  T
  15    -21.0789344 -0.974154E-11  0.181E-05    0.55    1838.9  T

   *** convergence criteria satisfied after 15 iterations ***

         #    Occupation            Energy/Eh            Energy/eV
      -------------------------------------------------------------
         1        2.0000           -0.7450985             -20.2752
       ...           ...                  ...                  ...
        12        2.0000           -0.5436713             -14.7940
        13        2.0000           -0.5202786             -14.1575
        14        2.0000           -0.5063490             -13.7785
        15        2.0000           -0.4937055             -13.4344
        16        2.0000           -0.4327879             -11.7768
        17        2.0000           -0.4236997             -11.5295
        18        1.9999           -0.3800070             -10.3405 (HOMO)
        19        0.0001           -0.3599150              -9.7938 (LUMO)
        20                         -0.3395546              -9.2398
        21                         -0.2715295              -7.3887
        22                         -0.2159132              -5.8753
        23                          0.0316577               0.8614
       ...                                ...                  ...
        30                          0.7051653              19.1885
      -------------------------------------------------------------
                  HL-Gap            0.0200920 Eh            0.5467 eV
             Fermi-level           -0.3699610 Eh          -10.0672 eV

 SCC (total)                   0 d,  0 h,  0 min,  0.008 sec
 SCC setup                      ...        0 min,  0.000 sec (  1.593%)
 Dispersion                     ...        0 min,  0.000 sec (  0.726%)
 integral evaluation            ...        0 min,  0.001 sec ( 13.802%)
 zeroth order Hamiltonian       ...        0 min,  0.000 sec (  0.409%)
 iterations                     ...        0 min,  0.004 sec ( 55.568%)
 molecular gradient             ...        0 min,  0.002 sec ( 25.385%)
 printout                       ...        0 min,  0.000 sec (  2.058%)

         :::::::::::::::::::::::::::::::::::::::::::::::::::::
         ::                     SUMMARY                     ::
         :::::::::::::::::::::::::::::::::::::::::::::::::::::
         :: total energy              -20.838635483548 Eh   ::
         :: gradient norm               0.035589968190 Eh/α ::
         :: HOMO-LUMO gap               0.546731422019 eV   ::
         ::.................................................::
         :: SCC energy                -21.078934448189 Eh   ::
         :: -> isotropic ES             0.028267736079 Eh   ::
         :: -> anisotropic ES           0.003583964060 Eh   ::
         :: -> anisotropic XC           0.025941918485 Eh   ::
         :: -> dispersion              -0.005895209474 Eh   ::
         :: repulsion energy            0.240293473376 Eh   ::
         :: add. restraining            0.000000000000 Eh   ::
         :::::::::::::::::::::::::::::::::::::::::::::::::::::

           -------------------------------------------------
          |                Property Printout                |
           -------------------------------------------------

    * Orbital Energies and Occupations

         #    Occupation            Energy/Eh            Energy/eV
      -------------------------------------------------------------
         1        2.0000           -0.7450985             -20.2752
       ...           ...                  ...                  ...
         6        2.0000           -0.6333198             -17.2335
         7        2.0000           -0.6119464             -16.6519
         8        2.0000           -0.5924113             -16.1203
         9        2.0000           -0.5869487             -15.9717
        10        2.0000           -0.5779422             -15.7266
        11        2.0000           -0.5671506             -15.4330
        12        2.0000           -0.5436713             -14.7940
        13        2.0000           -0.5202786             -14.1575
        14        2.0000           -0.5063490             -13.7785
        15        2.0000           -0.4937055             -13.4344
        16        2.0000           -0.4327879             -11.7768
        17        2.0000           -0.4236997             -11.5295
        18        1.9999           -0.3800070             -10.3405 (HOMO)
        19        0.0001           -0.3599150              -9.7938 (LUMO)
        20                         -0.3395546              -9.2398
        21                         -0.2715295              -7.3887
        22                         -0.2159132              -5.8753
        23                          0.0316577               0.8614
        24                          0.0532362               1.4486
        25                          0.1060708               2.8863
        26                          0.1867276               5.0811
        27                          0.3398681               9.2483
        28                          0.5272131              14.3462
        29                          0.6184769              16.8296
        30                          0.7051653              19.1885
      -------------------------------------------------------------
                  HL-Gap            0.0200920 Eh            0.5467 eV
             Fermi-level           -0.3699610 Eh          -10.0672 eV

   #   Z        covCN         q      C6AA      α(0)
   1   7 N      1.787    -0.260    27.597     7.781
   2   6 C      2.814     0.158    24.577     8.123
   3   7 N      1.900     0.107    20.026     6.635
   4   7 N      0.986    -0.090    22.622     6.840
   5   8 O      0.930    -0.297    19.688     5.951
   6   7 N      1.846     0.153    19.270     6.506
   7   6 C      2.841    -0.024    28.592     8.763
   8   1 H      0.859     0.176     1.238     1.743
   9   1 H      0.926     0.077     2.012     2.218

 Mol. C6AA /au·bohr⁶  :       1301.852574
 Mol. C8AA /au·bohr⁸  :      29753.858403
 Mol. α(0) /au        :         54.558625


Wiberg/Mayer (AO) data.
largest (>0.10) Wiberg bond orders for each atom
          total WBO             WBO to atom ...
     1  N   3.148        C    2 1.785    H    8 0.931    N    6 0.115    O    5 0.114
     2  C   3.933        N    1 1.785    N    3 1.024    C    7 0.906    N    4 0.109
     3  N   3.634        N    4 2.304    C    2 1.024
     4  N   2.950        N    3 2.304    O    5 0.185    N    6 0.173    C    2 0.109
     5  O   2.194        N    6 1.449    C    7 0.280    N    4 0.185    N    1 0.114
     6  N   3.544        C    7 1.658    O    5 1.449    N    4 0.173    N    1 0.115
     7  C   3.938        N    6 1.658    H    9 0.952    C    2 0.906    O    5 0.280
     8  H   0.969        N    1 0.931
     9  H   0.994        C    7 0.952

molecular dipole:
                 x           y           z       tot (Debye)
 q only:       -0.701       0.191       0.747
   full:       -1.012       0.196       0.774       3.277
molecular quadrupole (traceless):
                xx          xy          yy          xz          yz          zz
 q only:       -0.014       1.139      -0.459       6.233      -2.906       0.473
  q+dip:       -0.234       0.448      -1.098       9.017      -2.387       1.332
   full:       -0.303      -0.124      -0.353       9.149      -1.420       0.655


           -------------------------------------------------
          | TOTAL ENERGY              -20.838635483548 Eh   |
          | GRADIENT NORM               0.035589968190 Eh/α |
          | HOMO-LUMO GAP               0.546731422019 eV   |
           -------------------------------------------------

------------------------------------------------------------------------
 * finished run on 2021/06/02 at 10:00:06.464     
------------------------------------------------------------------------
 total:
 * wall-time:     0 d,  0 h,  0 min,  0.015 sec
 *  cpu-time:     0 d,  0 h,  0 min,  0.015 sec
 * ratio c/w:     0.986 speedup
 SCF:
 * wall-time:     0 d,  0 h,  0 min,  0.008 sec
 *  cpu-time:     0 d,  0 h,  0 min,  0.008 sec
 * ratio c/w:     1.000 speedup

