      -----------------------------------------------------------      
     |                   =====================                   |     
     |                           x T B                           |     
     |                   =====================                   |     
     |                         S. Grimme                         |     
     |          Mulliken Center for Theoretical Chemistry        |     
     |                    University of Bonn                     |     
     |                 Version 6.1.4 (SAW190525)                 |     
      -----------------------------------------------------------      

   This program is distributed in the hope that it will be useful,
   but WITHOUT ANY WARRANTY; without even the implied warranty of
   MERCHANTABILITY or FITNESS FOR A PARTICULAR PURPOSE.
   
   FOR NON-COMMERCIAL, ACADEMIA USE ONLY.
   
   Cite this work as:
   S. Grimme, C. Bannwarth, P. Shushkov, J. Comput. Theory Chem., 2017,
   13, 1989-2009. DOI: 10.1021/acs.jctc.7b00118
   C. Bannwarth, S. Ehlert and S. Grimme., J. Comput. Theory Chem., 2019,
   just accepted. DOI: 10.1021/acs.jctc.8b01176
   
   for sTDA-xTB:
   S. Grimme and C. Bannwarth, J. Chem. Phys., 2016, 145, 054103.
   DOI: 10.1063/1.4959605
   
   in the mass-spec context:
   V. Asgeirsson, C. Bauer and S. Grimme, Chem. Sci., 2017, 8, 4879.
   DOI: 10.1039/c7sc00601b
   
   for metadynamics refer to:
   S. Grimme, J. Chem. Theory Comput. Article ASAP, 2019,
   DOI: 10.1021/acs.jctc.9b00143
   
   with help from (in alphabetical order)
   C. Bannwarth, F. Bohle, G. Brandenburg, E. Caldeweyher, M. Checinski,
   S. Dohm, S. Ehlert, S. Ehrlich, F. März, H. Neugebauer, J. Pisarek,
   P. Pracht, P. Shushkov, and S. Spicher.
   
 * started run on 2021/06/02 at 10:00:07.337     

           -------------------------------------------------
          |                Calculation Setup                |
           -------------------------------------------------

          program call               : /groups/kemi/koerstz/opt/xtb/6.1/bin/xtb 29.xyz --gfn2 --acc 0.2 --chrg 0
          hostname                   : node305
          coordinate file            : 29.xyz
          omp threads                :                     1
          number of atoms            :                     9
          number of electrons        :                    36
          charge                     :                     0
          spin                       :                   0.0
          first test random number   :      0.49180910494354


########################################################################
# WARNING! Please study the warnings concerning your input carefully
#  - XTBPATH is not set, using XTBHOME instead
########################################################################

           ------------------------------------------------- 
          |                 G F N 2 - x T B                 |
          | Geometry, Frequencies, Noncovalent interactions |
          |            JCTC 2018 parametrisation            |
           ------------------------------------------------- 
             k(s)              :                1.8500
             k(p)              :                2.2300
             k(d)              :                2.2300
             k(f)              :                2.0000
             kEN (H0ij)        :               -2.0000
             D4 a1             :                0.5200
             D4 a2             :                5.0000
             D4 s6             :                1.0000
             D4 s8             :                2.7000
             D4 s9             :                5.0000
             alphaj            :                2.0000

  Z AO/shell   Hii/eV     exponent
  1     Wed Apr 25 08:07:45 CEST 2018   EN: 2.200 GM2: 0.406  GM3: 0.0800  RAES: 1.40
     1s    -10.707211    1.230000
  6     Wed Apr 25 08:07:45 CEST 2018   EN: 2.550 GM2: 0.538  GM3: 0.1500  RAES: 3.00
     2s    -13.970922    2.096432
     2p    -10.063292    1.800000
  7     Wed Apr 25 08:07:45 CEST 2018   EN: 3.040 GM2: 0.461  GM3:-0.0640  RAES: 1.90
     2s    -16.686243    2.339881
     2p    -12.523956    2.014332
  8     Wed Apr 25 08:07:45 CEST 2018   EN: 3.440 GM2: 0.452  GM3:-0.0517  RAES: 1.80
     2s    -20.229985    2.439742
     2p    -15.503117    2.137023


            Z     q(EN)     CN     RAES       Cart. coordinates
     1  N   5.0   -0.43    2.02    1.90    -0.72603     0.04761    -1.87830
     2  C   4.0    0.33    3.03    3.02    -0.93232    -1.28694     0.06238
     3  N   5.0   -0.14    2.02    1.90    -2.84891    -2.88719     0.74204
     4  N   5.0   -0.16    1.01    1.90    -3.97487    -3.68366     2.45405
     5  O   6.0   -0.09    1.01    1.80     3.28981    -2.07886    -2.50695
     6  N   5.0   -0.16    2.03    1.90     3.27223    -2.34217    -0.23016
     7  C   4.0    0.14    3.04    3.02     1.48876    -2.08310     1.29492
     8  H   1.0    0.33    1.00    1.43    -2.13254     0.21304    -3.15011
     9  H   1.0    0.17    1.00    1.43     1.71598    -2.40014     3.27077

           ------------------------------------------------- 
          |        Self-Consistent Charge Iterations        |
           ------------------------------------------------- 
q/qsh data taken from xtbrestart
CAMM data taken from xtbrestart

          ...................................................
          :                      SETUP                      :
          :.................................................:
          :  # basis functions                  30          :
          :  # atomic orbitals                  30          :
          :  # shells                           16          :
          :  # electrons                        36          :
          :  max. iterations                   250          :
          :  Hamiltonian                  GFN2-xTB          :
          :  restarted?                       true          :
          :  GBSA solvation                  false          :
          :  PC potential                    false          :
          :  electronic temp.          300.0000000     K    :
          :  accuracy                    0.2000000          :
          :  -> integral cutoff          0.3198970E+02      :
          :  -> integral neglect         0.2000000E-08      :
          :  -> SCF convergence          0.2000000E-06 Eh   :
          :  -> wf. convergence          0.2000000E-04 e    :
          :  Broyden damping             0.4000000          :
          ...................................................

 iter      E             dE          RMSdq      gap      omega  full diag
   1    -20.9863431 -0.209863E+02  0.597E+00    0.94       0.0  T
   2    -21.0366266 -0.502835E-01  0.387E+00    1.12       1.0  T
   3    -20.9142563  0.122370E+00  0.402E+00    0.72       1.0  T
   4    -20.9592459 -0.449896E-01  0.336E+00    1.34       1.0  T
   5    -21.0819322 -0.122686E+00  0.867E-01    0.82       1.0  T
   6    -21.0849392 -0.300701E-02  0.369E-01    0.78       1.0  T
   7    -21.0858070 -0.867790E-03  0.168E-01    0.76       1.0  T
   8    -21.0858901 -0.831111E-04  0.603E-02    0.74       1.0  T
   9    -21.0859102 -0.200818E-04  0.223E-02    0.74       1.5  T
  10    -21.0859136 -0.332940E-05  0.110E-02    0.74       3.0  T
  11    -21.0859136 -0.331366E-07  0.785E-03    0.74       4.2  T
  12    -21.0859144 -0.799697E-06  0.132E-03    0.74      25.3  T
  13    -21.0859144 -0.486680E-08  0.105E-03    0.74      31.7  T
  14    -21.0859144 -0.129392E-07  0.837E-05    0.74     398.4  T
  15    -21.0859144 -0.646239E-11  0.444E-05    0.74     751.1  T

   *** convergence criteria satisfied after 15 iterations ***

         #    Occupation            Energy/Eh            Energy/eV
      -------------------------------------------------------------
         1        2.0000           -0.7454736             -20.2854
       ...           ...                  ...                  ...
        12        2.0000           -0.5435900             -14.7918
        13        2.0000           -0.5156650             -14.0320
        14        2.0000           -0.5011933             -13.6382
        15        2.0000           -0.4926903             -13.4068
        16        2.0000           -0.4332727             -11.7900
        17        2.0000           -0.4274167             -11.6306
        18        2.0000           -0.3827792             -10.4160 (HOMO)
        19        0.0000           -0.3554799              -9.6731 (LUMO)
        20                         -0.3352635              -9.1230
        21                         -0.2721644              -7.4060
        22                         -0.2068246              -5.6280
        23                          0.0420734               1.1449
       ...                                ...                  ...
        30                          0.6725712              18.3016
      -------------------------------------------------------------
                  HL-Gap            0.0272993 Eh            0.7429 eV
             Fermi-level           -0.3691296 Eh          -10.0445 eV

 SCC (total)                   0 d,  0 h,  0 min,  0.008 sec
 SCC setup                      ...        0 min,  0.000 sec (  1.621%)
 Dispersion                     ...        0 min,  0.000 sec (  0.721%)
 integral evaluation            ...        0 min,  0.001 sec ( 13.702%)
 zeroth order Hamiltonian       ...        0 min,  0.000 sec (  0.399%)
 iterations                     ...        0 min,  0.004 sec ( 56.206%)
 molecular gradient             ...        0 min,  0.002 sec ( 24.919%)
 printout                       ...        0 min,  0.000 sec (  2.011%)

         :::::::::::::::::::::::::::::::::::::::::::::::::::::
         ::                     SUMMARY                     ::
         :::::::::::::::::::::::::::::::::::::::::::::::::::::
         :: total energy              -20.842610223807 Eh   ::
         :: gradient norm               0.069492945020 Eh/α ::
         :: HOMO-LUMO gap               0.742850793095 eV   ::
         ::.................................................::
         :: SCC energy                -21.085914408319 Eh   ::
         :: -> isotropic ES             0.025145023682 Eh   ::
         :: -> anisotropic ES           0.004251502673 Eh   ::
         :: -> anisotropic XC           0.024216844595 Eh   ::
         :: -> dispersion              -0.005918940869 Eh   ::
         :: repulsion energy            0.243299898874 Eh   ::
         :: add. restraining            0.000000000000 Eh   ::
         :::::::::::::::::::::::::::::::::::::::::::::::::::::

           -------------------------------------------------
          |                Property Printout                |
           -------------------------------------------------

    * Orbital Energies and Occupations

         #    Occupation            Energy/Eh            Energy/eV
      -------------------------------------------------------------
         1        2.0000           -0.7454736             -20.2854
       ...           ...                  ...                  ...
         6        2.0000           -0.6327430             -17.2178
         7        2.0000           -0.6025669             -16.3967
         8        2.0000           -0.5934450             -16.1485
         9        2.0000           -0.5889734             -16.0268
        10        2.0000           -0.5848106             -15.9135
        11        2.0000           -0.5646810             -15.3658
        12        2.0000           -0.5435900             -14.7918
        13        2.0000           -0.5156650             -14.0320
        14        2.0000           -0.5011933             -13.6382
        15        2.0000           -0.4926903             -13.4068
        16        2.0000           -0.4332727             -11.7900
        17        2.0000           -0.4274167             -11.6306
        18        2.0000           -0.3827792             -10.4160 (HOMO)
        19        0.0000           -0.3554799              -9.6731 (LUMO)
        20                         -0.3352635              -9.1230
        21                         -0.2721644              -7.4060
        22                         -0.2068246              -5.6280
        23                          0.0420734               1.1449
        24                          0.0750891               2.0433
        25                          0.1247218               3.3939
        26                          0.1983441               5.3972
        27                          0.3755105              10.2182
        28                          0.5407669              14.7150
        29                          0.6234104              16.9639
        30                          0.6725712              18.3016
      -------------------------------------------------------------
                  HL-Gap            0.0272993 Eh            0.7429 eV
             Fermi-level           -0.3691296 Eh          -10.0445 eV

   #   Z        covCN         q      C6AA      α(0)
   1   7 N      1.790    -0.257    27.516     7.770
   2   6 C      2.828     0.154    24.664     8.138
   3   7 N      1.907     0.094    20.261     6.674
   4   7 N      0.986    -0.109    22.998     6.896
   5   8 O      0.934    -0.269    19.193     5.876
   6   7 N      1.858     0.157    19.209     6.496
   7   6 C      2.853    -0.024    28.603     8.766
   8   1 H      0.860     0.176     1.235     1.741
   9   1 H      0.927     0.078     1.995     2.209

 Mol. C6AA /au·bohr⁶  :       1301.652238
 Mol. C8AA /au·bohr⁸  :      29758.716534
 Mol. α(0) /au        :         54.564145


Wiberg/Mayer (AO) data.
largest (>0.10) Wiberg bond orders for each atom
          total WBO             WBO to atom ...
     1  N   3.190        C    2 1.735    H    8 0.931    O    5 0.157    N    6 0.137    N    4 0.114
     2  C   3.933        N    1 1.735    N    3 1.070    C    7 0.899    N    4 0.123
     3  N   3.623        N    4 2.265    C    2 1.070
     4  N   2.930        N    3 2.265    O    5 0.185    N    6 0.163    C    2 0.123    N    1 0.114
     5  O   2.236        N    6 1.459    C    7 0.279    N    4 0.185    N    1 0.157
     6  N   3.550        C    7 1.663    O    5 1.459    N    4 0.163    N    1 0.137
     7  C   3.937        N    6 1.663    H    9 0.958    C    2 0.899    O    5 0.279
     8  H   0.969        N    1 0.931
     9  H   0.994        C    7 0.958

molecular dipole:
                 x           y           z       tot (Debye)
 q only:       -0.440       0.012       0.602
   full:       -0.719      -0.016       0.613       2.401
molecular quadrupole (traceless):
                xx          xy          yy          xz          yz          zz
 q only:       -0.697      -0.479       0.537       6.269      -1.787       0.159
  q+dip:       -1.270      -1.198       0.412       9.290      -1.047       0.857
   full:       -1.303      -1.747       1.256       9.674      -0.287       0.047


           -------------------------------------------------
          | TOTAL ENERGY              -20.842610223807 Eh   |
          | GRADIENT NORM               0.069492945020 Eh/α |
          | HOMO-LUMO GAP               0.742850793095 eV   |
           -------------------------------------------------

------------------------------------------------------------------------
 * finished run on 2021/06/02 at 10:00:07.354     
------------------------------------------------------------------------
 total:
 * wall-time:     0 d,  0 h,  0 min,  0.016 sec
 *  cpu-time:     0 d,  0 h,  0 min,  0.016 sec
 * ratio c/w:     0.987 speedup
 SCF:
 * wall-time:     0 d,  0 h,  0 min,  0.008 sec
 *  cpu-time:     0 d,  0 h,  0 min,  0.008 sec
 * ratio c/w:     1.000 speedup

