      -----------------------------------------------------------      
     |                   =====================                   |     
     |                           x T B                           |     
     |                   =====================                   |     
     |                         S. Grimme                         |     
     |          Mulliken Center for Theoretical Chemistry        |     
     |                    University of Bonn                     |     
     |                 Version 6.1.4 (SAW190525)                 |     
      -----------------------------------------------------------      

   This program is distributed in the hope that it will be useful,
   but WITHOUT ANY WARRANTY; without even the implied warranty of
   MERCHANTABILITY or FITNESS FOR A PARTICULAR PURPOSE.
   
   FOR NON-COMMERCIAL, ACADEMIA USE ONLY.
   
   Cite this work as:
   S. Grimme, C. Bannwarth, P. Shushkov, J. Comput. Theory Chem., 2017,
   13, 1989-2009. DOI: 10.1021/acs.jctc.7b00118
   C. Bannwarth, S. Ehlert and S. Grimme., J. Comput. Theory Chem., 2019,
   just accepted. DOI: 10.1021/acs.jctc.8b01176
   
   for sTDA-xTB:
   S. Grimme and C. Bannwarth, J. Chem. Phys., 2016, 145, 054103.
   DOI: 10.1063/1.4959605
   
   in the mass-spec context:
   V. Asgeirsson, C. Bauer and S. Grimme, Chem. Sci., 2017, 8, 4879.
   DOI: 10.1039/c7sc00601b
   
   for metadynamics refer to:
   S. Grimme, J. Chem. Theory Comput. Article ASAP, 2019,
   DOI: 10.1021/acs.jctc.9b00143
   
   with help from (in alphabetical order)
   C. Bannwarth, F. Bohle, G. Brandenburg, E. Caldeweyher, M. Checinski,
   S. Dohm, S. Ehlert, S. Ehrlich, F. März, H. Neugebauer, J. Pisarek,
   P. Pracht, P. Shushkov, and S. Spicher.
   
 * started run on 2021/06/02 at 10:00:06.809     

           -------------------------------------------------
          |                Calculation Setup                |
           -------------------------------------------------

          program call               : /groups/kemi/koerstz/opt/xtb/6.1/bin/xtb 3.xyz --gfn2 --acc 0.2 --chrg 0
          hostname                   : node305
          coordinate file            : 3.xyz
          omp threads                :                     1
          number of atoms            :                     9
          number of electrons        :                    36
          charge                     :                     0
          spin                       :                   0.0
          first test random number   :      0.50538832133543


########################################################################
# WARNING! Please study the warnings concerning your input carefully
#  - XTBPATH is not set, using XTBHOME instead
########################################################################

           ------------------------------------------------- 
          |                 G F N 2 - x T B                 |
          | Geometry, Frequencies, Noncovalent interactions |
          |            JCTC 2018 parametrisation            |
           ------------------------------------------------- 
             k(s)              :                1.8500
             k(p)              :                2.2300
             k(d)              :                2.2300
             k(f)              :                2.0000
             kEN (H0ij)        :               -2.0000
             D4 a1             :                0.5200
             D4 a2             :                5.0000
             D4 s6             :                1.0000
             D4 s8             :                2.7000
             D4 s9             :                5.0000
             alphaj            :                2.0000

  Z AO/shell   Hii/eV     exponent
  1     Wed Apr 25 08:07:45 CEST 2018   EN: 2.200 GM2: 0.406  GM3: 0.0800  RAES: 1.40
     1s    -10.707211    1.230000
  6     Wed Apr 25 08:07:45 CEST 2018   EN: 2.550 GM2: 0.538  GM3: 0.1500  RAES: 3.00
     2s    -13.970922    2.096432
     2p    -10.063292    1.800000
  7     Wed Apr 25 08:07:45 CEST 2018   EN: 3.040 GM2: 0.461  GM3:-0.0640  RAES: 1.90
     2s    -16.686243    2.339881
     2p    -12.523956    2.014332
  8     Wed Apr 25 08:07:45 CEST 2018   EN: 3.440 GM2: 0.452  GM3:-0.0517  RAES: 1.80
     2s    -20.229985    2.439742
     2p    -15.503117    2.137023


            Z     q(EN)     CN     RAES       Cart. coordinates
     1  N   5.0   -0.46    2.00    1.90    -1.52690     1.11355    -0.57178
     2  C   4.0    0.30    3.03    3.02    -0.40642    -0.92137    -0.09438
     3  N   5.0   -0.04    2.47    1.90    -1.47055    -3.35286    -0.71744
     4  N   5.0   -0.19    1.00    1.90    -3.24107    -4.21575    -1.57089
     5  O   6.0   -0.04    1.48    1.80     1.10685    -5.27910     0.42735
     6  N   5.0   -0.20    2.03    1.90     2.67291    -3.66088     1.24121
     7  C   4.0    0.12    3.04    3.02     2.02685    -1.31792     1.04784
     8  H   1.0    0.33    1.00    1.43    -3.25273     0.97461    -1.41068
     9  H   1.0    0.17    1.00    1.43     3.24316     0.15831     1.70742

           ------------------------------------------------- 
          |        Self-Consistent Charge Iterations        |
           ------------------------------------------------- 
q/qsh data taken from xtbrestart
CAMM data taken from xtbrestart

          ...................................................
          :                      SETUP                      :
          :.................................................:
          :  # basis functions                  30          :
          :  # atomic orbitals                  30          :
          :  # shells                           16          :
          :  # electrons                        36          :
          :  max. iterations                   250          :
          :  Hamiltonian                  GFN2-xTB          :
          :  restarted?                       true          :
          :  GBSA solvation                  false          :
          :  PC potential                    false          :
          :  electronic temp.          300.0000000     K    :
          :  accuracy                    0.2000000          :
          :  -> integral cutoff          0.3198970E+02      :
          :  -> integral neglect         0.2000000E-08      :
          :  -> SCF convergence          0.2000000E-06 Eh   :
          :  -> wf. convergence          0.2000000E-04 e    :
          :  Broyden damping             0.4000000          :
          ...................................................

 iter      E             dE          RMSdq      gap      omega  full diag
   1    -21.0975786 -0.210976E+02  0.170E+00    0.84       0.0  T
   2    -21.0988677 -0.128913E-02  0.879E-01    0.86       1.0  T
   3    -21.0980369  0.830804E-03  0.450E-01    0.74       1.0  T
   4    -21.0995048 -0.146785E-02  0.101E-01    0.81       1.0  T
   5    -21.0995420 -0.372194E-04  0.545E-02    0.79       1.0  T
   6    -21.0995528 -0.108119E-04  0.106E-02    0.79       3.1  T
   7    -21.0995530 -0.172897E-06  0.576E-03    0.79       5.8  T
   8    -21.0995530 -0.224598E-07  0.193E-03    0.79      17.3  T
   9    -21.0995530 -0.237653E-07  0.590E-04    0.79      56.5  T
  10    -21.0995530 -0.287418E-09  0.279E-04    0.79     119.5  T
  11    -21.0995530 -0.127450E-09  0.687E-05    0.79     485.5  T
  12    -21.0995530 -0.101714E-10  0.267E-05    0.79    1248.6  T

   *** convergence criteria satisfied after 12 iterations ***

         #    Occupation            Energy/Eh            Energy/eV
      -------------------------------------------------------------
         1        2.0000           -0.7598441             -20.6764
       ...           ...                  ...                  ...
        12        2.0000           -0.5393341             -14.6760
        13        2.0000           -0.5325552             -14.4916
        14        2.0000           -0.5025207             -13.6743
        15        2.0000           -0.4943849             -13.4529
        16        2.0000           -0.4562424             -12.4150
        17        2.0000           -0.4403886             -11.9836
        18        2.0000           -0.3978991             -10.8274 (HOMO)
        19        0.0000           -0.3688545             -10.0370 (LUMO)
        20                         -0.2931613              -7.9773
        21                         -0.2854423              -7.7673
        22                         -0.1994801              -5.4281
        23                         -0.0059949              -0.1631
       ...                                ...                  ...
        30                          0.7383579              20.0917
      -------------------------------------------------------------
                  HL-Gap            0.0290446 Eh            0.7903 eV
             Fermi-level           -0.3833768 Eh          -10.4322 eV

 SCC (total)                   0 d,  0 h,  0 min,  0.007 sec
 SCC setup                      ...        0 min,  0.000 sec (  1.736%)
 Dispersion                     ...        0 min,  0.000 sec (  0.780%)
 integral evaluation            ...        0 min,  0.001 sec ( 14.697%)
 zeroth order Hamiltonian       ...        0 min,  0.000 sec (  0.424%)
 iterations                     ...        0 min,  0.004 sec ( 52.382%)
 molecular gradient             ...        0 min,  0.002 sec ( 26.817%)
 printout                       ...        0 min,  0.000 sec (  2.695%)

         :::::::::::::::::::::::::::::::::::::::::::::::::::::
         ::                     SUMMARY                     ::
         :::::::::::::::::::::::::::::::::::::::::::::::::::::
         :: total energy              -20.867195920435 Eh   ::
         :: gradient norm               0.003170037019 Eh/α ::
         :: HOMO-LUMO gap               0.790342877679 eV   ::
         ::.................................................::
         :: SCC energy                -21.099553033725 Eh   ::
         :: -> isotropic ES             0.027471135797 Eh   ::
         :: -> anisotropic ES           0.003540367351 Eh   ::
         :: -> anisotropic XC           0.029881224511 Eh   ::
         :: -> dispersion              -0.006055053676 Eh   ::
         :: repulsion energy            0.232353998353 Eh   ::
         :: add. restraining            0.000000000000 Eh   ::
         :::::::::::::::::::::::::::::::::::::::::::::::::::::

           -------------------------------------------------
          |                Property Printout                |
           -------------------------------------------------

    * Orbital Energies and Occupations

         #    Occupation            Energy/Eh            Energy/eV
      -------------------------------------------------------------
         1        2.0000           -0.7598441             -20.6764
       ...           ...                  ...                  ...
         6        2.0000           -0.6536971             -17.7880
         7        2.0000           -0.6260513             -17.0357
         8        2.0000           -0.6163835             -16.7726
         9        2.0000           -0.5842769             -15.8990
        10        2.0000           -0.5791764             -15.7602
        11        2.0000           -0.5536628             -15.0659
        12        2.0000           -0.5393341             -14.6760
        13        2.0000           -0.5325552             -14.4916
        14        2.0000           -0.5025207             -13.6743
        15        2.0000           -0.4943849             -13.4529
        16        2.0000           -0.4562424             -12.4150
        17        2.0000           -0.4403886             -11.9836
        18        2.0000           -0.3978991             -10.8274 (HOMO)
        19        0.0000           -0.3688545             -10.0370 (LUMO)
        20                         -0.2931613              -7.9773
        21                         -0.2854423              -7.7673
        22                         -0.1994801              -5.4281
        23                         -0.0059949              -0.1631
        24                          0.0499857               1.3602
        25                          0.0932565               2.5376
        26                          0.2162056               5.8833
        27                          0.3181830               8.6582
        28                          0.4063648              11.0577
        29                          0.5499947              14.9661
        30                          0.7383579              20.0917
      -------------------------------------------------------------
                  HL-Gap            0.0290446 Eh            0.7903 eV
             Fermi-level           -0.3833768 Eh          -10.4322 eV

   #   Z        covCN         q      C6AA      α(0)
   1   7 N      1.778    -0.271    27.857     7.816
   2   6 C      2.829     0.163    24.473     8.106
   3   7 N      2.326     0.217    17.847     6.272
   4   7 N      0.985    -0.134    23.517     6.975
   5   8 O      1.361    -0.270    18.832     5.840
   6   7 N      1.861     0.034    21.322     6.844
   7   6 C      2.858    -0.001    28.059     8.682
   8   1 H      0.860     0.178     1.224     1.733
   9   1 H      0.926     0.084     1.936     2.176

 Mol. C6AA /au·bohr⁶  :       1294.991925
 Mol. C8AA /au·bohr⁸  :      29606.278364
 Mol. α(0) /au        :         54.445254


Wiberg/Mayer (AO) data.
largest (>0.10) Wiberg bond orders for each atom
          total WBO             WBO to atom ...
     1  N   3.107        C    2 1.791    H    8 0.935    N    4 0.120
     2  C   3.953        N    1 1.791    C    7 1.122    N    3 0.921
     3  N   3.783        N    4 2.306    C    2 0.921    O    5 0.380
     4  N   2.827        N    3 2.306    O    5 0.266    N    1 0.120
     5  O   2.273        N    6 1.313    N    3 0.380    N    4 0.266    C    7 0.177
     6  N   3.222        C    7 1.624    O    5 1.313
     7  C   3.968        N    6 1.624    C    2 1.122    H    9 0.959    O    5 0.177
     8  H   0.968        N    1 0.935
     9  H   0.993        C    7 0.959

molecular dipole:
                 x           y           z       tot (Debye)
 q only:       -0.055       0.875       0.012
   full:       -0.216       0.884      -0.063       2.320
molecular quadrupole (traceless):
                xx          xy          yy          xz          yz          zz
 q only:        4.510       0.735      -7.757       0.876       0.085       3.248
  q+dip:        5.102       0.781     -10.102       0.163      -0.066       5.000
   full:        4.478       0.682     -10.975      -1.149      -0.236       6.497


           -------------------------------------------------
          | TOTAL ENERGY              -20.867195920435 Eh   |
          | GRADIENT NORM               0.003170037019 Eh/α |
          | HOMO-LUMO GAP               0.790342877679 eV   |
           -------------------------------------------------

------------------------------------------------------------------------
 * finished run on 2021/06/02 at 10:00:06.824     
------------------------------------------------------------------------
 total:
 * wall-time:     0 d,  0 h,  0 min,  0.015 sec
 *  cpu-time:     0 d,  0 h,  0 min,  0.015 sec
 * ratio c/w:     0.986 speedup
 SCF:
 * wall-time:     0 d,  0 h,  0 min,  0.007 sec
 *  cpu-time:     0 d,  0 h,  0 min,  0.007 sec
 * ratio c/w:     1.000 speedup

