      -----------------------------------------------------------      
     |                   =====================                   |     
     |                           x T B                           |     
     |                   =====================                   |     
     |                         S. Grimme                         |     
     |          Mulliken Center for Theoretical Chemistry        |     
     |                    University of Bonn                     |     
     |                 Version 6.1.4 (SAW190525)                 |     
      -----------------------------------------------------------      

   This program is distributed in the hope that it will be useful,
   but WITHOUT ANY WARRANTY; without even the implied warranty of
   MERCHANTABILITY or FITNESS FOR A PARTICULAR PURPOSE.
   
   FOR NON-COMMERCIAL, ACADEMIA USE ONLY.
   
   Cite this work as:
   S. Grimme, C. Bannwarth, P. Shushkov, J. Comput. Theory Chem., 2017,
   13, 1989-2009. DOI: 10.1021/acs.jctc.7b00118
   C. Bannwarth, S. Ehlert and S. Grimme., J. Comput. Theory Chem., 2019,
   just accepted. DOI: 10.1021/acs.jctc.8b01176
   
   for sTDA-xTB:
   S. Grimme and C. Bannwarth, J. Chem. Phys., 2016, 145, 054103.
   DOI: 10.1063/1.4959605
   
   in the mass-spec context:
   V. Asgeirsson, C. Bauer and S. Grimme, Chem. Sci., 2017, 8, 4879.
   DOI: 10.1039/c7sc00601b
   
   for metadynamics refer to:
   S. Grimme, J. Chem. Theory Comput. Article ASAP, 2019,
   DOI: 10.1021/acs.jctc.9b00143
   
   with help from (in alphabetical order)
   C. Bannwarth, F. Bohle, G. Brandenburg, E. Caldeweyher, M. Checinski,
   S. Dohm, S. Ehlert, S. Ehrlich, F. März, H. Neugebauer, J. Pisarek,
   P. Pracht, P. Shushkov, and S. Spicher.
   
 * started run on 2021/06/02 at 10:00:06.686     

           -------------------------------------------------
          |                Calculation Setup                |
           -------------------------------------------------

          program call               : /groups/kemi/koerstz/opt/xtb/6.1/bin/xtb 30.xyz --gfn2 --acc 0.2 --chrg 0
          hostname                   : node305
          coordinate file            : 30.xyz
          omp threads                :                     1
          number of atoms            :                     9
          number of electrons        :                    36
          charge                     :                     0
          spin                       :                   0.0
          first test random number   :      0.02946036565310


########################################################################
# WARNING! Please study the warnings concerning your input carefully
#  - XTBPATH is not set, using XTBHOME instead
########################################################################

           ------------------------------------------------- 
          |                 G F N 2 - x T B                 |
          | Geometry, Frequencies, Noncovalent interactions |
          |            JCTC 2018 parametrisation            |
           ------------------------------------------------- 
             k(s)              :                1.8500
             k(p)              :                2.2300
             k(d)              :                2.2300
             k(f)              :                2.0000
             kEN (H0ij)        :               -2.0000
             D4 a1             :                0.5200
             D4 a2             :                5.0000
             D4 s6             :                1.0000
             D4 s8             :                2.7000
             D4 s9             :                5.0000
             alphaj            :                2.0000

  Z AO/shell   Hii/eV     exponent
  1     Wed Apr 25 08:07:45 CEST 2018   EN: 2.200 GM2: 0.406  GM3: 0.0800  RAES: 1.40
     1s    -10.707211    1.230000
  6     Wed Apr 25 08:07:45 CEST 2018   EN: 2.550 GM2: 0.538  GM3: 0.1500  RAES: 3.00
     2s    -13.970922    2.096432
     2p    -10.063292    1.800000
  7     Wed Apr 25 08:07:45 CEST 2018   EN: 3.040 GM2: 0.461  GM3:-0.0640  RAES: 1.90
     2s    -16.686243    2.339881
     2p    -12.523956    2.014332
  8     Wed Apr 25 08:07:45 CEST 2018   EN: 3.440 GM2: 0.452  GM3:-0.0517  RAES: 1.80
     2s    -20.229985    2.439742
     2p    -15.503117    2.137023


            Z     q(EN)     CN     RAES       Cart. coordinates
     1  N   5.0   -0.42    2.04    1.90    -0.62824    -0.06970    -1.90363
     2  C   4.0    0.33    3.04    3.02    -0.93291    -1.27668     0.14083
     3  N   5.0   -0.14    2.02    1.90    -2.83245    -2.84363     0.83084
     4  N   5.0   -0.16    1.01    1.90    -4.03602    -3.67886     2.40856
     5  O   6.0   -0.09    1.03    1.80     3.03572    -1.65004    -2.50884
     6  N   5.0   -0.16    2.04    1.90     3.22659    -2.28573    -0.29226
     7  C   4.0    0.14    3.04    3.02     1.50639    -2.08123     1.35712
     8  H   1.0    0.33    1.00    1.43    -1.93772    -0.07558    -3.29384
     9  H   1.0    0.17    1.00    1.43     1.75076    -2.53996     3.31987

           ------------------------------------------------- 
          |        Self-Consistent Charge Iterations        |
           ------------------------------------------------- 
q/qsh data taken from xtbrestart
CAMM data taken from xtbrestart

          ...................................................
          :                      SETUP                      :
          :.................................................:
          :  # basis functions                  30          :
          :  # atomic orbitals                  30          :
          :  # shells                           16          :
          :  # electrons                        36          :
          :  max. iterations                   250          :
          :  Hamiltonian                  GFN2-xTB          :
          :  restarted?                       true          :
          :  GBSA solvation                  false          :
          :  PC potential                    false          :
          :  electronic temp.          300.0000000     K    :
          :  accuracy                    0.2000000          :
          :  -> integral cutoff          0.3198970E+02      :
          :  -> integral neglect         0.2000000E-08      :
          :  -> SCF convergence          0.2000000E-06 Eh   :
          :  -> wf. convergence          0.2000000E-04 e    :
          :  Broyden damping             0.4000000          :
          ...................................................

 iter      E             dE          RMSdq      gap      omega  full diag
   1    -20.7397080 -0.207397E+02  0.686E+00    0.83       0.0  T
   2    -20.6822957  0.574124E-01  0.690E+00    2.07       1.0  T
   3    -21.0647944 -0.382499E+00  0.271E+00    1.32       1.0  T
   4    -21.0483607  0.164338E-01  0.212E+00    0.96       1.0  T
   5    -21.0896609 -0.413002E-01  0.505E-01    1.09       1.0  T
   6    -21.0903481 -0.687202E-03  0.260E-01    1.05       1.0  T
   7    -21.0907933 -0.445205E-03  0.110E-01    1.07       1.0  T
   8    -21.0908373 -0.440442E-04  0.542E-02    1.06       1.0  T
   9    -21.0908441 -0.673598E-05  0.211E-02    1.06       1.6  T
  10    -21.0908447 -0.579326E-06  0.171E-02    1.06       1.9  T
  11    -21.0908469 -0.222814E-05  0.914E-03    1.06       3.6  T
  12    -21.0908479 -0.977459E-06  0.246E-03    1.06      13.5  T
  13    -21.0908479 -0.737588E-07  0.471E-04    1.06      70.7  T
  14    -21.0908479 -0.100755E-09  0.170E-04    1.06     195.6  T
  15    -21.0908479 -0.275595E-09  0.208E-05    1.06    1601.3  T

   *** convergence criteria satisfied after 15 iterations ***

         #    Occupation            Energy/Eh            Energy/eV
      -------------------------------------------------------------
         1        2.0000           -0.7442136             -20.2511
       ...           ...                  ...                  ...
        12        2.0000           -0.5413545             -14.7310
        13        2.0000           -0.5138459             -13.9825
        14        2.0000           -0.4974523             -13.5364
        15        2.0000           -0.4842456             -13.1770
        16        2.0000           -0.4377283             -11.9112
        17        2.0000           -0.4262214             -11.5981
        18        2.0000           -0.3820779             -10.3969 (HOMO)
        19                         -0.3429972              -9.3334 (LUMO)
        20                         -0.3281026              -8.9281
        21                         -0.2691910              -7.3251
        22                         -0.2042022              -5.5566
        23                          0.0414849               1.1289
       ...                                ...                  ...
        30                          0.7634808              20.7754
      -------------------------------------------------------------
                  HL-Gap            0.0390807 Eh            1.0634 eV
             Fermi-level           -0.3625376 Eh           -9.8651 eV

 SCC (total)                   0 d,  0 h,  0 min,  0.008 sec
 SCC setup                      ...        0 min,  0.000 sec (  1.630%)
 Dispersion                     ...        0 min,  0.000 sec (  0.755%)
 integral evaluation            ...        0 min,  0.001 sec ( 14.227%)
 zeroth order Hamiltonian       ...        0 min,  0.000 sec (  0.481%)
 iterations                     ...        0 min,  0.004 sec ( 55.101%)
 molecular gradient             ...        0 min,  0.002 sec ( 25.193%)
 printout                       ...        0 min,  0.000 sec (  2.162%)

         :::::::::::::::::::::::::::::::::::::::::::::::::::::
         ::                     SUMMARY                     ::
         :::::::::::::::::::::::::::::::::::::::::::::::::::::
         :: total energy              -20.848792781548 Eh   ::
         :: gradient norm               0.021041267864 Eh/α ::
         :: HOMO-LUMO gap               1.063440287883 eV   ::
         ::.................................................::
         :: SCC energy                -21.090847934502 Eh   ::
         :: -> isotropic ES             0.022486959111 Eh   ::
         :: -> anisotropic ES           0.004271999233 Eh   ::
         :: -> anisotropic XC           0.024726674776 Eh   ::
         :: -> dispersion              -0.005956063788 Eh   ::
         :: repulsion energy            0.242051393443 Eh   ::
         :: add. restraining            0.000000000000 Eh   ::
         :::::::::::::::::::::::::::::::::::::::::::::::::::::

           -------------------------------------------------
          |                Property Printout                |
           -------------------------------------------------

    * Orbital Energies and Occupations

         #    Occupation            Energy/Eh            Energy/eV
      -------------------------------------------------------------
         1        2.0000           -0.7442136             -20.2511
       ...           ...                  ...                  ...
         6        2.0000           -0.6315548             -17.1855
         7        2.0000           -0.6048718             -16.4594
         8        2.0000           -0.5958370             -16.2136
         9        2.0000           -0.5852421             -15.9252
        10        2.0000           -0.5831909             -15.8694
        11        2.0000           -0.5651678             -15.3790
        12        2.0000           -0.5413545             -14.7310
        13        2.0000           -0.5138459             -13.9825
        14        2.0000           -0.4974523             -13.5364
        15        2.0000           -0.4842456             -13.1770
        16        2.0000           -0.4377283             -11.9112
        17        2.0000           -0.4262214             -11.5981
        18        2.0000           -0.3820779             -10.3969 (HOMO)
        19                         -0.3429972              -9.3334 (LUMO)
        20                         -0.3281026              -8.9281
        21                         -0.2691910              -7.3251
        22                         -0.2042022              -5.5566
        23                          0.0414849               1.1289
        24                          0.0884500               2.4068
        25                          0.1120077               3.0479
        26                          0.1850809               5.0363
        27                          0.3652168               9.9381
        28                          0.4807176              13.0810
        29                          0.6041179              16.4389
        30                          0.7634808              20.7754
      -------------------------------------------------------------
                  HL-Gap            0.0390807 Eh            1.0634 eV
             Fermi-level           -0.3625376 Eh           -9.8651 eV

   #   Z        covCN         q      C6AA      α(0)
   1   7 N      1.811    -0.239    27.085     7.711
   2   6 C      2.836     0.126    25.221     8.230
   3   7 N      1.908     0.118    19.845     6.605
   4   7 N      0.987    -0.111    23.037     6.902
   5   8 O      0.954    -0.247    18.808     5.817
   6   7 N      1.866     0.123    19.759     6.589
   7   6 C      2.859    -0.016    28.400     8.735
   8   1 H      0.860     0.171     1.267     1.763
   9   1 H      0.926     0.074     2.044     2.236

 Mol. C6AA /au·bohr⁶  :       1301.871628
 Mol. C8AA /au·bohr⁸  :      29762.072434
 Mol. α(0) /au        :         54.586744


Wiberg/Mayer (AO) data.
largest (>0.10) Wiberg bond orders for each atom
          total WBO             WBO to atom ...
     1  N   3.218        C    2 1.619    H    8 0.933    O    5 0.255    N    6 0.166    N    4 0.124
     2  C   3.920        N    1 1.619    N    3 1.117    C    7 0.912    N    4 0.164
     3  N   3.659        N    4 2.289    C    2 1.117
     4  N   2.939        N    3 2.289    C    2 0.164    O    5 0.163    N    1 0.124    N    6 0.117
     5  O   2.270        N    6 1.438    C    7 0.264    N    1 0.255    N    4 0.163
     6  N   3.485        C    7 1.664    O    5 1.438    N    1 0.166    N    4 0.117
     7  C   3.940        N    6 1.664    H    9 0.962    C    2 0.912    O    5 0.264
     8  H   0.971        N    1 0.933
     9  H   0.995        C    7 0.962

molecular dipole:
                 x           y           z       tot (Debye)
 q only:       -0.432      -0.114       0.547
   full:       -0.697      -0.182       0.527       2.270
molecular quadrupole (traceless):
                xx          xy          yy          xz          yz          zz
 q only:       -0.857      -0.724       0.705       5.622      -1.237       0.152
  q+dip:       -1.809      -1.365       0.529       8.529      -0.142       1.280
   full:       -1.785      -1.889       1.253       9.052       0.498       0.532


           -------------------------------------------------
          | TOTAL ENERGY              -20.848792781548 Eh   |
          | GRADIENT NORM               0.021041267864 Eh/α |
          | HOMO-LUMO GAP               1.063440287883 eV   |
           -------------------------------------------------

------------------------------------------------------------------------
 * finished run on 2021/06/02 at 10:00:06.702     
------------------------------------------------------------------------
 total:
 * wall-time:     0 d,  0 h,  0 min,  0.015 sec
 *  cpu-time:     0 d,  0 h,  0 min,  0.015 sec
 * ratio c/w:     0.986 speedup
 SCF:
 * wall-time:     0 d,  0 h,  0 min,  0.008 sec
 *  cpu-time:     0 d,  0 h,  0 min,  0.008 sec
 * ratio c/w:     1.000 speedup

