      -----------------------------------------------------------      
     |                   =====================                   |     
     |                           x T B                           |     
     |                   =====================                   |     
     |                         S. Grimme                         |     
     |          Mulliken Center for Theoretical Chemistry        |     
     |                    University of Bonn                     |     
     |                 Version 6.1.4 (SAW190525)                 |     
      -----------------------------------------------------------      

   This program is distributed in the hope that it will be useful,
   but WITHOUT ANY WARRANTY; without even the implied warranty of
   MERCHANTABILITY or FITNESS FOR A PARTICULAR PURPOSE.
   
   FOR NON-COMMERCIAL, ACADEMIA USE ONLY.
   
   Cite this work as:
   S. Grimme, C. Bannwarth, P. Shushkov, J. Comput. Theory Chem., 2017,
   13, 1989-2009. DOI: 10.1021/acs.jctc.7b00118
   C. Bannwarth, S. Ehlert and S. Grimme., J. Comput. Theory Chem., 2019,
   just accepted. DOI: 10.1021/acs.jctc.8b01176
   
   for sTDA-xTB:
   S. Grimme and C. Bannwarth, J. Chem. Phys., 2016, 145, 054103.
   DOI: 10.1063/1.4959605
   
   in the mass-spec context:
   V. Asgeirsson, C. Bauer and S. Grimme, Chem. Sci., 2017, 8, 4879.
   DOI: 10.1039/c7sc00601b
   
   for metadynamics refer to:
   S. Grimme, J. Chem. Theory Comput. Article ASAP, 2019,
   DOI: 10.1021/acs.jctc.9b00143
   
   with help from (in alphabetical order)
   C. Bannwarth, F. Bohle, G. Brandenburg, E. Caldeweyher, M. Checinski,
   S. Dohm, S. Ehlert, S. Ehrlich, F. März, H. Neugebauer, J. Pisarek,
   P. Pracht, P. Shushkov, and S. Spicher.
   
 * started run on 2021/06/02 at 10:00:06.428     

           -------------------------------------------------
          |                Calculation Setup                |
           -------------------------------------------------

          program call               : /groups/kemi/koerstz/opt/xtb/6.1/bin/xtb 31.xyz --gfn2 --acc 0.2 --chrg 0
          hostname                   : node305
          coordinate file            : 31.xyz
          omp threads                :                     1
          number of atoms            :                     9
          number of electrons        :                    36
          charge                     :                     0
          spin                       :                   0.0
          first test random number   :      0.44942587949391


########################################################################
# WARNING! Please study the warnings concerning your input carefully
#  - XTBPATH is not set, using XTBHOME instead
########################################################################

           ------------------------------------------------- 
          |                 G F N 2 - x T B                 |
          | Geometry, Frequencies, Noncovalent interactions |
          |            JCTC 2018 parametrisation            |
           ------------------------------------------------- 
             k(s)              :                1.8500
             k(p)              :                2.2300
             k(d)              :                2.2300
             k(f)              :                2.0000
             kEN (H0ij)        :               -2.0000
             D4 a1             :                0.5200
             D4 a2             :                5.0000
             D4 s6             :                1.0000
             D4 s8             :                2.7000
             D4 s9             :                5.0000
             alphaj            :                2.0000

  Z AO/shell   Hii/eV     exponent
  1     Wed Apr 25 08:07:45 CEST 2018   EN: 2.200 GM2: 0.406  GM3: 0.0800  RAES: 1.40
     1s    -10.707211    1.230000
  6     Wed Apr 25 08:07:45 CEST 2018   EN: 2.550 GM2: 0.538  GM3: 0.1500  RAES: 3.00
     2s    -13.970922    2.096432
     2p    -10.063292    1.800000
  7     Wed Apr 25 08:07:45 CEST 2018   EN: 3.040 GM2: 0.461  GM3:-0.0640  RAES: 1.90
     2s    -16.686243    2.339881
     2p    -12.523956    2.014332
  8     Wed Apr 25 08:07:45 CEST 2018   EN: 3.440 GM2: 0.452  GM3:-0.0517  RAES: 1.80
     2s    -20.229985    2.439742
     2p    -15.503117    2.137023


            Z     q(EN)     CN     RAES       Cart. coordinates
     1  N   5.0   -0.40    2.13    1.90    -0.60172    -0.16171    -1.90014
     2  C   4.0    0.32    3.05    3.02    -0.92060    -1.34404     0.18525
     3  N   5.0   -0.14    2.02    1.90    -2.79666    -2.90839     0.86885
     4  N   5.0   -0.16    1.01    1.90    -4.19990    -3.56331     2.34985
     5  O   6.0   -0.08    1.12    1.80     2.93437    -1.35508    -2.47198
     6  N   5.0   -0.17    2.04    1.90     3.24486    -2.15436    -0.30029
     7  C   4.0    0.14    3.05    3.02     1.54540    -2.08598     1.38060
     8  H   1.0    0.32    1.00    1.43    -1.86502    -0.27540    -3.35246
     9  H   1.0    0.17    1.00    1.43     1.81139    -2.65314     3.29897

           ------------------------------------------------- 
          |        Self-Consistent Charge Iterations        |
           ------------------------------------------------- 
q/qsh data taken from xtbrestart
CAMM data taken from xtbrestart

          ...................................................
          :                      SETUP                      :
          :.................................................:
          :  # basis functions                  30          :
          :  # atomic orbitals                  30          :
          :  # shells                           16          :
          :  # electrons                        36          :
          :  max. iterations                   250          :
          :  Hamiltonian                  GFN2-xTB          :
          :  restarted?                       true          :
          :  GBSA solvation                  false          :
          :  PC potential                    false          :
          :  electronic temp.          300.0000000     K    :
          :  accuracy                    0.2000000          :
          :  -> integral cutoff          0.3198970E+02      :
          :  -> integral neglect         0.2000000E-08      :
          :  -> SCF convergence          0.2000000E-06 Eh   :
          :  -> wf. convergence          0.2000000E-04 e    :
          :  Broyden damping             0.4000000          :
          ...................................................

 iter      E             dE          RMSdq      gap      omega  full diag
   1    -20.9929124 -0.209929E+02  0.676E+00    1.27       0.0  T
   2    -20.9415900  0.513225E-01  0.550E+00    1.74       1.0  T
   3    -20.9832547 -0.416647E-01  0.346E+00    1.12       1.0  T
   4    -21.0698681 -0.866134E-01  0.168E+00    1.42       1.0  T
   5    -21.0925244 -0.226563E-01  0.535E-01    1.28       1.0  T
   6    -21.0934261 -0.901775E-03  0.290E-01    1.29       1.0  T
   7    -21.0937229 -0.296801E-03  0.120E-01    1.27       1.0  T
   8    -21.0937538 -0.308485E-04  0.336E-02    1.27       1.0  T
   9    -21.0937602 -0.638957E-05  0.137E-02    1.27       2.4  T
  10    -21.0937603 -0.131168E-06  0.548E-03    1.27       6.1  T
  11    -21.0937604 -0.137770E-06  0.190E-03    1.27      17.5  T
  12    -21.0937604  0.215810E-07  0.174E-03    1.27      19.2  T
  13    -21.0937605 -0.309287E-07  0.228E-04    1.27     146.0  T
  14    -21.0937605 -0.296687E-10  0.146E-04    1.27     228.4  T
  15    -21.0937605 -0.149150E-09  0.248E-05    1.27    1343.9  T

   *** convergence criteria satisfied after 15 iterations ***

         #    Occupation            Energy/Eh            Energy/eV
      -------------------------------------------------------------
         1        2.0000           -0.7469546             -20.3257
       ...           ...                  ...                  ...
        12        2.0000           -0.5419998             -14.7486
        13        2.0000           -0.5110829             -13.9073
        14        2.0000           -0.4987608             -13.5720
        15        2.0000           -0.4769089             -12.9774
        16        2.0000           -0.4460737             -12.1383
        17        2.0000           -0.4314886             -11.7414
        18        2.0000           -0.3792786             -10.3207 (HOMO)
        19                         -0.3326605              -9.0522 (LUMO)
        20                         -0.3216105              -8.7515
        21                         -0.2710170              -7.3747
        22                         -0.2038308              -5.5465
        23                          0.0383686               1.0441
       ...                                ...                  ...
        30                          0.8005401              21.7838
      -------------------------------------------------------------
                  HL-Gap            0.0466181 Eh            1.2685 eV
             Fermi-level           -0.3559695 Eh           -9.6864 eV

 SCC (total)                   0 d,  0 h,  0 min,  0.008 sec
 SCC setup                      ...        0 min,  0.000 sec (  1.544%)
 Dispersion                     ...        0 min,  0.000 sec (  0.675%)
 integral evaluation            ...        0 min,  0.001 sec ( 13.565%)
 zeroth order Hamiltonian       ...        0 min,  0.000 sec (  0.383%)
 iterations                     ...        0 min,  0.004 sec ( 56.158%)
 molecular gradient             ...        0 min,  0.002 sec ( 25.012%)
 printout                       ...        0 min,  0.000 sec (  2.219%)

         :::::::::::::::::::::::::::::::::::::::::::::::::::::
         ::                     SUMMARY                     ::
         :::::::::::::::::::::::::::::::::::::::::::::::::::::
         :: total energy              -20.852685119494 Eh   ::
         :: gradient norm               0.032880445423 Eh/α ::
         :: HOMO-LUMO gap               1.268542831177 eV   ::
         ::.................................................::
         :: SCC energy                -21.093760452991 Eh   ::
         :: -> isotropic ES             0.020460380895 Eh   ::
         :: -> anisotropic ES           0.003875263854 Eh   ::
         :: -> anisotropic XC           0.024918375836 Eh   ::
         :: -> dispersion              -0.005949234422 Eh   ::
         :: repulsion energy            0.241071880353 Eh   ::
         :: add. restraining            0.000000000000 Eh   ::
         :::::::::::::::::::::::::::::::::::::::::::::::::::::

           -------------------------------------------------
          |                Property Printout                |
           -------------------------------------------------

    * Orbital Energies and Occupations

         #    Occupation            Energy/Eh            Energy/eV
      -------------------------------------------------------------
         1        2.0000           -0.7469546             -20.3257
       ...           ...                  ...                  ...
         6        2.0000           -0.6324813             -17.2107
         7        2.0000           -0.6031375             -16.4122
         8        2.0000           -0.5980408             -16.2735
         9        2.0000           -0.5854049             -15.9297
        10        2.0000           -0.5831081             -15.8672
        11        2.0000           -0.5670954             -15.4315
        12        2.0000           -0.5419998             -14.7486
        13        2.0000           -0.5110829             -13.9073
        14        2.0000           -0.4987608             -13.5720
        15        2.0000           -0.4769089             -12.9774
        16        2.0000           -0.4460737             -12.1383
        17        2.0000           -0.4314886             -11.7414
        18        2.0000           -0.3792786             -10.3207 (HOMO)
        19                         -0.3326605              -9.0522 (LUMO)
        20                         -0.3216105              -8.7515
        21                         -0.2710170              -7.3747
        22                         -0.2038308              -5.5465
        23                          0.0383686               1.0441
        24                          0.0994979               2.7075
        25                          0.1104027               3.0042
        26                          0.1746647               4.7529
        27                          0.3626327               9.8677
        28                          0.4529371              12.3250
        29                          0.5863287              15.9548
        30                          0.8005401              21.7838
      -------------------------------------------------------------
                  HL-Gap            0.0466181 Eh            1.2685 eV
             Fermi-level           -0.3559695 Eh           -9.6864 eV

   #   Z        covCN         q      C6AA      α(0)
   1   7 N      1.893    -0.220    26.640     7.652
   2   6 C      2.845     0.112    25.532     8.281
   3   7 N      1.907     0.121    19.787     6.595
   4   7 N      0.988    -0.121    23.239     6.931
   5   8 O      1.036    -0.231    18.500     5.771
   6   7 N      1.874     0.102    20.114     6.648
   7   6 C      2.863    -0.007    28.185     8.702
   8   1 H      0.860     0.169     1.278     1.771
   9   1 H      0.927     0.074     2.042     2.234

 Mol. C6AA /au·bohr⁶  :       1301.179774
 Mol. C8AA /au·bohr⁸  :      29749.881673
 Mol. α(0) /au        :         54.586193


Wiberg/Mayer (AO) data.
largest (>0.10) Wiberg bond orders for each atom
          total WBO             WBO to atom ...
     1  N   3.246        C    2 1.534    H    8 0.933    O    5 0.336    N    6 0.176    N    4 0.140
     2  C   3.913        N    1 1.534    N    3 1.155    C    7 0.929    N    4 0.189
     3  N   3.668        N    4 2.280    C    2 1.155
     4  N   2.927        N    3 2.280    C    2 0.189    O    5 0.148    N    1 0.140
     5  O   2.284        N    6 1.408    N    1 0.336    C    7 0.250    N    4 0.148
     6  N   3.448        C    7 1.684    O    5 1.408    N    1 0.176
     7  C   3.947        N    6 1.684    H    9 0.964    C    2 0.929    O    5 0.250
     8  H   0.971        N    1 0.933
     9  H   0.995        C    7 0.964

molecular dipole:
                 x           y           z       tot (Debye)
 q only:       -0.338      -0.173       0.467
   full:       -0.564      -0.279       0.408       1.907
molecular quadrupole (traceless):
                xx          xy          yy          xz          yz          zz
 q only:       -1.348      -1.130       0.911       5.532      -0.850       0.437
  q+dip:       -2.802      -1.706       0.956       8.423       0.397       1.845
   full:       -2.858      -2.190       1.599       9.047       0.880       1.259


           -------------------------------------------------
          | TOTAL ENERGY              -20.852685119494 Eh   |
          | GRADIENT NORM               0.032880445423 Eh/α |
          | HOMO-LUMO GAP               1.268542831177 eV   |
           -------------------------------------------------

------------------------------------------------------------------------
 * finished run on 2021/06/02 at 10:00:06.444     
------------------------------------------------------------------------
 total:
 * wall-time:     0 d,  0 h,  0 min,  0.015 sec
 *  cpu-time:     0 d,  0 h,  0 min,  0.015 sec
 * ratio c/w:     0.986 speedup
 SCF:
 * wall-time:     0 d,  0 h,  0 min,  0.008 sec
 *  cpu-time:     0 d,  0 h,  0 min,  0.008 sec
 * ratio c/w:     1.000 speedup

