      -----------------------------------------------------------      
     |                   =====================                   |     
     |                           x T B                           |     
     |                   =====================                   |     
     |                         S. Grimme                         |     
     |          Mulliken Center for Theoretical Chemistry        |     
     |                    University of Bonn                     |     
     |                 Version 6.1.4 (SAW190525)                 |     
      -----------------------------------------------------------      

   This program is distributed in the hope that it will be useful,
   but WITHOUT ANY WARRANTY; without even the implied warranty of
   MERCHANTABILITY or FITNESS FOR A PARTICULAR PURPOSE.
   
   FOR NON-COMMERCIAL, ACADEMIA USE ONLY.
   
   Cite this work as:
   S. Grimme, C. Bannwarth, P. Shushkov, J. Comput. Theory Chem., 2017,
   13, 1989-2009. DOI: 10.1021/acs.jctc.7b00118
   C. Bannwarth, S. Ehlert and S. Grimme., J. Comput. Theory Chem., 2019,
   just accepted. DOI: 10.1021/acs.jctc.8b01176
   
   for sTDA-xTB:
   S. Grimme and C. Bannwarth, J. Chem. Phys., 2016, 145, 054103.
   DOI: 10.1063/1.4959605
   
   in the mass-spec context:
   V. Asgeirsson, C. Bauer and S. Grimme, Chem. Sci., 2017, 8, 4879.
   DOI: 10.1039/c7sc00601b
   
   for metadynamics refer to:
   S. Grimme, J. Chem. Theory Comput. Article ASAP, 2019,
   DOI: 10.1021/acs.jctc.9b00143
   
   with help from (in alphabetical order)
   C. Bannwarth, F. Bohle, G. Brandenburg, E. Caldeweyher, M. Checinski,
   S. Dohm, S. Ehlert, S. Ehrlich, F. März, H. Neugebauer, J. Pisarek,
   P. Pracht, P. Shushkov, and S. Spicher.
   
 * started run on 2021/06/02 at 10:00:06.510     

           -------------------------------------------------
          |                Calculation Setup                |
           -------------------------------------------------

          program call               : /groups/kemi/koerstz/opt/xtb/6.1/bin/xtb 33.xyz --gfn2 --acc 0.2 --chrg 0
          hostname                   : node305
          coordinate file            : 33.xyz
          omp threads                :                     1
          number of atoms            :                     9
          number of electrons        :                    36
          charge                     :                     0
          spin                       :                   0.0
          first test random number   :      0.00172603975363


########################################################################
# WARNING! Please study the warnings concerning your input carefully
#  - XTBPATH is not set, using XTBHOME instead
########################################################################

           ------------------------------------------------- 
          |                 G F N 2 - x T B                 |
          | Geometry, Frequencies, Noncovalent interactions |
          |            JCTC 2018 parametrisation            |
           ------------------------------------------------- 
             k(s)              :                1.8500
             k(p)              :                2.2300
             k(d)              :                2.2300
             k(f)              :                2.0000
             kEN (H0ij)        :               -2.0000
             D4 a1             :                0.5200
             D4 a2             :                5.0000
             D4 s6             :                1.0000
             D4 s8             :                2.7000
             D4 s9             :                5.0000
             alphaj            :                2.0000

  Z AO/shell   Hii/eV     exponent
  1     Wed Apr 25 08:07:45 CEST 2018   EN: 2.200 GM2: 0.406  GM3: 0.0800  RAES: 1.40
     1s    -10.707211    1.230000
  6     Wed Apr 25 08:07:45 CEST 2018   EN: 2.550 GM2: 0.538  GM3: 0.1500  RAES: 3.00
     2s    -13.970922    2.096432
     2p    -10.063292    1.800000
  7     Wed Apr 25 08:07:45 CEST 2018   EN: 3.040 GM2: 0.461  GM3:-0.0640  RAES: 1.90
     2s    -16.686243    2.339881
     2p    -12.523956    2.014332
  8     Wed Apr 25 08:07:45 CEST 2018   EN: 3.440 GM2: 0.452  GM3:-0.0517  RAES: 1.80
     2s    -20.229985    2.439742
     2p    -15.503117    2.137023


            Z     q(EN)     CN     RAES       Cart. coordinates
     1  N   5.0   -0.34    2.83    1.91    -0.49847    -0.30512    -1.89150
     2  C   4.0    0.29    3.05    3.02    -0.92956    -1.41042     0.33997
     3  N   5.0   -0.15    2.01    1.90    -2.75024    -2.97377     0.94652
     4  N   5.0   -0.17    1.01    1.90    -4.34797    -3.69025     2.17598
     5  O   6.0   -0.00    1.81    1.81     2.51296    -1.00661    -2.41720
     6  N   5.0   -0.21    2.05    1.90     3.26203    -1.85312    -0.31665
     7  C   4.0    0.13    3.09    3.02     1.60534    -2.03937     1.39847
     8  H   1.0    0.29    1.00    1.43    -1.68346    -0.49412    -3.43304
     9  H   1.0    0.17    1.00    1.43     1.98149    -2.72863     3.25609

           ------------------------------------------------- 
          |        Self-Consistent Charge Iterations        |
           ------------------------------------------------- 
q/qsh data taken from xtbrestart
CAMM data taken from xtbrestart

          ...................................................
          :                      SETUP                      :
          :.................................................:
          :  # basis functions                  30          :
          :  # atomic orbitals                  30          :
          :  # shells                           16          :
          :  # electrons                        36          :
          :  max. iterations                   250          :
          :  Hamiltonian                  GFN2-xTB          :
          :  restarted?                       true          :
          :  GBSA solvation                  false          :
          :  PC potential                    false          :
          :  electronic temp.          300.0000000     K    :
          :  accuracy                    0.2000000          :
          :  -> integral cutoff          0.3198970E+02      :
          :  -> integral neglect         0.2000000E-08      :
          :  -> SCF convergence          0.2000000E-06 Eh   :
          :  -> wf. convergence          0.2000000E-04 e    :
          :  Broyden damping             0.4000000          :
          ...................................................

 iter      E             dE          RMSdq      gap      omega  full diag
   1    -21.0762679 -0.210763E+02  0.326E+00    1.54       0.0  T
   2    -21.0875622 -0.112943E-01  0.188E+00    1.38       1.0  T
   3    -21.0874673  0.948961E-04  0.106E+00    1.49       1.0  T
   4    -21.0903108 -0.284347E-02  0.488E-01    1.35       1.0  T
   5    -21.0922963 -0.198545E-02  0.193E-01    1.44       1.0  T
   6    -21.0925251 -0.228807E-03  0.727E-02    1.40       1.0  T
   7    -21.0925330 -0.793860E-05  0.143E-02    1.41       2.3  T
   8    -21.0925335 -0.496133E-06  0.617E-03    1.41       5.4  T
   9    -21.0925335 -0.275078E-07  0.176E-03    1.41      18.9  T
  10    -21.0925335 -0.508581E-08  0.952E-04    1.41      35.0  T
  11    -21.0925335 -0.722181E-09  0.284E-04    1.41     117.2  T
  12    -21.0925335 -0.187690E-09  0.871E-05    1.41     382.8  T
  13    -21.0925335 -0.565947E-11  0.340E-05    1.41     979.9  T

   *** convergence criteria satisfied after 13 iterations ***

         #    Occupation            Energy/Eh            Energy/eV
      -------------------------------------------------------------
         1        2.0000           -0.7686915             -20.9172
       ...           ...                  ...                  ...
        12        2.0000           -0.5416666             -14.7395
        13        2.0000           -0.5104917             -13.8912
        14        2.0000           -0.4930430             -13.4164
        15        2.0000           -0.4652890             -12.6612
        16        2.0000           -0.4594160             -12.5013
        17        2.0000           -0.4481715             -12.1954
        18        2.0000           -0.3645754              -9.9206 (HOMO)
        19                         -0.3128758              -8.5138 (LUMO)
        20                         -0.2773063              -7.5459
        21                         -0.2652200              -7.2170
        22                         -0.1910941              -5.1999
        23                          0.0270990               0.7374
       ...                                ...                  ...
        30                          0.8799904              23.9458
      -------------------------------------------------------------
                  HL-Gap            0.0516996 Eh            1.4068 eV
             Fermi-level           -0.3387256 Eh           -9.2172 eV

 SCC (total)                   0 d,  0 h,  0 min,  0.007 sec
 SCC setup                      ...        0 min,  0.000 sec (  1.682%)
 Dispersion                     ...        0 min,  0.000 sec (  0.800%)
 integral evaluation            ...        0 min,  0.001 sec ( 14.661%)
 zeroth order Hamiltonian       ...        0 min,  0.000 sec (  0.428%)
 iterations                     ...        0 min,  0.004 sec ( 53.310%)
 molecular gradient             ...        0 min,  0.002 sec ( 26.449%)
 printout                       ...        0 min,  0.000 sec (  2.222%)

         :::::::::::::::::::::::::::::::::::::::::::::::::::::
         ::                     SUMMARY                     ::
         :::::::::::::::::::::::::::::::::::::::::::::::::::::
         :: total energy              -20.860819775048 Eh   ::
         :: gradient norm               0.056728603987 Eh/α ::
         :: HOMO-LUMO gap               1.406817325331 eV   ::
         ::.................................................::
         :: SCC energy                -21.092533547677 Eh   ::
         :: -> isotropic ES             0.013645403249 Eh   ::
         :: -> anisotropic ES           0.003670073189 Eh   ::
         :: -> anisotropic XC           0.027119693467 Eh   ::
         :: -> dispersion              -0.005902410895 Eh   ::
         :: repulsion energy            0.231710539192 Eh   ::
         :: add. restraining            0.000000000000 Eh   ::
         :::::::::::::::::::::::::::::::::::::::::::::::::::::

           -------------------------------------------------
          |                Property Printout                |
           -------------------------------------------------

    * Orbital Energies and Occupations

         #    Occupation            Energy/Eh            Energy/eV
      -------------------------------------------------------------
         1        2.0000           -0.7686915             -20.9172
       ...           ...                  ...                  ...
         6        2.0000           -0.6440100             -17.5244
         7        2.0000           -0.6116156             -16.6429
         8        2.0000           -0.6008258             -16.3493
         9        2.0000           -0.5886820             -16.0189
        10        2.0000           -0.5801413             -15.7864
        11        2.0000           -0.5754446             -15.6586
        12        2.0000           -0.5416666             -14.7395
        13        2.0000           -0.5104917             -13.8912
        14        2.0000           -0.4930430             -13.4164
        15        2.0000           -0.4652890             -12.6612
        16        2.0000           -0.4594160             -12.5013
        17        2.0000           -0.4481715             -12.1954
        18        2.0000           -0.3645754              -9.9206 (HOMO)
        19                         -0.3128758              -8.5138 (LUMO)
        20                         -0.2773063              -7.5459
        21                         -0.2652200              -7.2170
        22                         -0.1910941              -5.1999
        23                          0.0270990               0.7374
        24                          0.0864659               2.3529
        25                          0.1186445               3.2285
        26                          0.1582703               4.3068
        27                          0.3268630               8.8944
        28                          0.3791532              10.3173
        29                          0.5360260              14.5860
        30                          0.8799904              23.9458
      -------------------------------------------------------------
                  HL-Gap            0.0516996 Eh            1.4068 eV
             Fermi-level           -0.3387256 Eh           -9.2172 eV

   #   Z        covCN         q      C6AA      α(0)
   1   7 N      2.536    -0.149    24.268     7.316
   2   6 C      2.849     0.058    26.683     8.466
   3   7 N      1.904     0.126    19.706     6.581
   4   7 N      0.989    -0.159    24.029     7.048
   5   8 O      1.672    -0.156    16.672     5.512
   6   7 N      1.884     0.021    21.571     6.885
   7   6 C      2.897     0.021    27.529     8.603
   8   1 H      0.859     0.169     1.278     1.771
   9   1 H      0.927     0.069     2.096     2.264

 Mol. C6AA /au·bohr⁶  :       1290.391429
 Mol. C8AA /au·bohr⁸  :      29526.667327
 Mol. α(0) /au        :         54.446287


Wiberg/Mayer (AO) data.
largest (>0.10) Wiberg bond orders for each atom
          total WBO             WBO to atom ...
     1  N   3.237        C    2 1.226    H    8 0.937    O    5 0.683    N    6 0.147    N    4 0.126
     2  C   3.870        N    3 1.283    N    1 1.226    C    7 0.987    N    4 0.300
     3  N   3.698        N    4 2.237    C    2 1.283
     4  N   2.867        N    3 2.237    C    2 0.300    N    1 0.126
     5  O   2.300        N    6 1.266    N    1 0.683    C    7 0.183
     6  N   3.283        C    7 1.734    O    5 1.266    N    1 0.147
     7  C   3.965        N    6 1.734    C    2 0.987    H    9 0.966    O    5 0.183
     8  H   0.971        N    1 0.937
     9  H   0.995        C    7 0.966

molecular dipole:
                 x           y           z       tot (Debye)
 q only:       -0.075      -0.022       0.121
   full:       -0.227      -0.138      -0.030       0.680
molecular quadrupole (traceless):
                xx          xy          yy          xz          yz          zz
 q only:       -2.150      -2.247       0.266       5.126       0.078       1.884
  q+dip:       -4.768      -2.830       0.764       7.927       1.596       4.004
   full:       -4.944      -3.310       1.030       8.566       1.855       3.914


           -------------------------------------------------
          | TOTAL ENERGY              -20.860819775048 Eh   |
          | GRADIENT NORM               0.056728603987 Eh/α |
          | HOMO-LUMO GAP               1.406817325331 eV   |
           -------------------------------------------------

------------------------------------------------------------------------
 * finished run on 2021/06/02 at 10:00:06.525     
------------------------------------------------------------------------
 total:
 * wall-time:     0 d,  0 h,  0 min,  0.014 sec
 *  cpu-time:     0 d,  0 h,  0 min,  0.014 sec
 * ratio c/w:     0.985 speedup
 SCF:
 * wall-time:     0 d,  0 h,  0 min,  0.007 sec
 *  cpu-time:     0 d,  0 h,  0 min,  0.007 sec
 * ratio c/w:     1.000 speedup

