      -----------------------------------------------------------      
     |                   =====================                   |     
     |                           x T B                           |     
     |                   =====================                   |     
     |                         S. Grimme                         |     
     |          Mulliken Center for Theoretical Chemistry        |     
     |                    University of Bonn                     |     
     |                 Version 6.1.4 (SAW190525)                 |     
      -----------------------------------------------------------      

   This program is distributed in the hope that it will be useful,
   but WITHOUT ANY WARRANTY; without even the implied warranty of
   MERCHANTABILITY or FITNESS FOR A PARTICULAR PURPOSE.
   
   FOR NON-COMMERCIAL, ACADEMIA USE ONLY.
   
   Cite this work as:
   S. Grimme, C. Bannwarth, P. Shushkov, J. Comput. Theory Chem., 2017,
   13, 1989-2009. DOI: 10.1021/acs.jctc.7b00118
   C. Bannwarth, S. Ehlert and S. Grimme., J. Comput. Theory Chem., 2019,
   just accepted. DOI: 10.1021/acs.jctc.8b01176
   
   for sTDA-xTB:
   S. Grimme and C. Bannwarth, J. Chem. Phys., 2016, 145, 054103.
   DOI: 10.1063/1.4959605
   
   in the mass-spec context:
   V. Asgeirsson, C. Bauer and S. Grimme, Chem. Sci., 2017, 8, 4879.
   DOI: 10.1039/c7sc00601b
   
   for metadynamics refer to:
   S. Grimme, J. Chem. Theory Comput. Article ASAP, 2019,
   DOI: 10.1021/acs.jctc.9b00143
   
   with help from (in alphabetical order)
   C. Bannwarth, F. Bohle, G. Brandenburg, E. Caldeweyher, M. Checinski,
   S. Dohm, S. Ehlert, S. Ehrlich, F. März, H. Neugebauer, J. Pisarek,
   P. Pracht, P. Shushkov, and S. Spicher.
   
 * started run on 2021/06/02 at 10:00:06.229     

           -------------------------------------------------
          |                Calculation Setup                |
           -------------------------------------------------

          program call               : /groups/kemi/koerstz/opt/xtb/6.1/bin/xtb 34.xyz --gfn2 --acc 0.2 --chrg 0
          hostname                   : node305
          coordinate file            : 34.xyz
          omp threads                :                     1
          number of atoms            :                     9
          number of electrons        :                    36
          charge                     :                     0
          spin                       :                   0.0
          first test random number   :      0.84848761284791


########################################################################
# WARNING! Please study the warnings concerning your input carefully
#  - XTBPATH is not set, using XTBHOME instead
########################################################################

           ------------------------------------------------- 
          |                 G F N 2 - x T B                 |
          | Geometry, Frequencies, Noncovalent interactions |
          |            JCTC 2018 parametrisation            |
           ------------------------------------------------- 
             k(s)              :                1.8500
             k(p)              :                2.2300
             k(d)              :                2.2300
             k(f)              :                2.0000
             kEN (H0ij)        :               -2.0000
             D4 a1             :                0.5200
             D4 a2             :                5.0000
             D4 s6             :                1.0000
             D4 s8             :                2.7000
             D4 s9             :                5.0000
             alphaj            :                2.0000

  Z AO/shell   Hii/eV     exponent
  1     Wed Apr 25 08:07:45 CEST 2018   EN: 2.200 GM2: 0.406  GM3: 0.0800  RAES: 1.40
     1s    -10.707211    1.230000
  6     Wed Apr 25 08:07:45 CEST 2018   EN: 2.550 GM2: 0.538  GM3: 0.1500  RAES: 3.00
     2s    -13.970922    2.096432
     2p    -10.063292    1.800000
  7     Wed Apr 25 08:07:45 CEST 2018   EN: 3.040 GM2: 0.461  GM3:-0.0640  RAES: 1.90
     2s    -16.686243    2.339881
     2p    -12.523956    2.014332
  8     Wed Apr 25 08:07:45 CEST 2018   EN: 3.440 GM2: 0.452  GM3:-0.0517  RAES: 1.80
     2s    -20.229985    2.439742
     2p    -15.503117    2.137023


            Z     q(EN)     CN     RAES       Cart. coordinates
     1  N   5.0   -0.33    3.06    1.93    -0.42864    -0.40139    -1.85882
     2  C   4.0    0.27    3.04    3.02    -0.90326    -1.53224     0.47121
     3  N   5.0   -0.15    2.01    1.90    -2.72879    -3.10353     1.01464
     4  N   5.0   -0.17    1.01    1.90    -4.55008    -3.73822     2.00754
     5  O   6.0    0.01    2.00    1.83     2.25819    -0.85017    -2.47736
     6  N   5.0   -0.22    2.06    1.90     3.32767    -1.62950    -0.32702
     7  C   4.0    0.13    3.10    3.02     1.66959    -2.03589     1.38683
     8  H   1.0    0.29    1.00    1.43    -1.64728    -0.48185    -3.36466
     9  H   1.0    0.17    1.00    1.43     2.15470    -2.72861     3.20628

           ------------------------------------------------- 
          |        Self-Consistent Charge Iterations        |
           ------------------------------------------------- 

          ...................................................
          :                      SETUP                      :
          :.................................................:
          :  # basis functions                  30          :
          :  # atomic orbitals                  30          :
          :  # shells                           16          :
          :  # electrons                        36          :
          :  max. iterations                   250          :
          :  Hamiltonian                  GFN2-xTB          :
          :  restarted?                      false          :
          :  GBSA solvation                  false          :
          :  PC potential                    false          :
          :  electronic temp.          300.0000000     K    :
          :  accuracy                    0.2000000          :
          :  -> integral cutoff          0.3198970E+02      :
          :  -> integral neglect         0.2000000E-08      :
          :  -> SCF convergence          0.2000000E-06 Eh   :
          :  -> wf. convergence          0.2000000E-04 e    :
          :  Broyden damping             0.4000000          :
          ...................................................

 iter      E             dE          RMSdq      gap      omega  full diag
   1    -20.9274199 -0.209274E+02  0.627E+00    2.25       0.0  T
   2    -21.0022074 -0.747876E-01  0.401E+00    1.29       1.0  T
   3    -21.0511871 -0.489796E-01  0.256E+00    1.80       1.0  T
   4    -21.0668050 -0.156179E-01  0.130E+00    1.23       1.0  T
   5    -21.0784203 -0.116153E-01  0.564E-01    1.33       1.0  T
   6    -21.0794771 -0.105681E-02  0.144E-01    1.26       1.0  T
   7    -21.0795001 -0.230005E-04  0.736E-02    1.27       1.0  T
   8    -21.0795060 -0.586904E-05  0.139E-02    1.27       2.4  T
   9    -21.0795064 -0.430601E-06  0.606E-03    1.27       5.5  T
  10    -21.0795066 -0.159295E-06  0.149E-03    1.27      22.3  T
  11    -21.0795066 -0.496172E-08  0.673E-04    1.27      49.6  T
  12    -21.0795066 -0.150233E-08  0.128E-04    1.27     260.9  T
  13    -21.0795066 -0.568399E-10  0.535E-05    1.27     622.9  T

   *** convergence criteria satisfied after 13 iterations ***

         #    Occupation            Energy/Eh            Energy/eV
      -------------------------------------------------------------
         1        2.0000           -0.7736276             -21.0515
       ...           ...                  ...                  ...
        12        2.0000           -0.5383106             -14.6482
        13        2.0000           -0.5159128             -14.0387
        14        2.0000           -0.4887445             -13.2994
        15        2.0000           -0.4782090             -13.0127
        16        2.0000           -0.4573028             -12.4438
        17        2.0000           -0.4440680             -12.0837
        18        2.0000           -0.3625320              -9.8650 (HOMO)
        19                         -0.3158516              -8.5948 (LUMO)
        20                         -0.2829611              -7.6998
        21                         -0.2260351              -6.1507
        22                         -0.1479981              -4.0272
        23                         -0.0019855              -0.0540
       ...                                ...                  ...
        30                          0.8368365              22.7715
      -------------------------------------------------------------
                  HL-Gap            0.0466803 Eh            1.2702 eV
             Fermi-level           -0.3391918 Eh           -9.2299 eV

 SCC (total)                   0 d,  0 h,  0 min,  0.007 sec
 SCC setup                      ...        0 min,  0.000 sec (  1.808%)
 Dispersion                     ...        0 min,  0.000 sec (  0.774%)
 integral evaluation            ...        0 min,  0.001 sec ( 14.652%)
 zeroth order Hamiltonian       ...        0 min,  0.000 sec (  1.297%)
 iterations                     ...        0 min,  0.004 sec ( 52.050%)
 molecular gradient             ...        0 min,  0.002 sec ( 26.443%)
 printout                       ...        0 min,  0.000 sec (  2.486%)

         :::::::::::::::::::::::::::::::::::::::::::::::::::::
         ::                     SUMMARY                     ::
         :::::::::::::::::::::::::::::::::::::::::::::::::::::
         :: total energy              -20.867545799007 Eh   ::
         :: gradient norm               0.034609539965 Eh/α ::
         :: HOMO-LUMO gap               1.270236523620 eV   ::
         ::.................................................::
         :: SCC energy                -21.079506607047 Eh   ::
         :: -> isotropic ES             0.012775947446 Eh   ::
         :: -> anisotropic ES           0.004288540471 Eh   ::
         :: -> anisotropic XC           0.029269020468 Eh   ::
         :: -> dispersion              -0.005857191280 Eh   ::
         :: repulsion energy            0.211957532035 Eh   ::
         :: add. restraining            0.000000000000 Eh   ::
         :::::::::::::::::::::::::::::::::::::::::::::::::::::

           -------------------------------------------------
          |                Property Printout                |
           -------------------------------------------------

    * Orbital Energies and Occupations

         #    Occupation            Energy/Eh            Energy/eV
      -------------------------------------------------------------
         1        2.0000           -0.7736276             -21.0515
       ...           ...                  ...                  ...
         6        2.0000           -0.6461314             -17.5821
         7        2.0000           -0.6169042             -16.7868
         8        2.0000           -0.5998459             -16.3226
         9        2.0000           -0.5926869             -16.1278
        10        2.0000           -0.5790224             -15.7560
        11        2.0000           -0.5715926             -15.5538
        12        2.0000           -0.5383106             -14.6482
        13        2.0000           -0.5159128             -14.0387
        14        2.0000           -0.4887445             -13.2994
        15        2.0000           -0.4782090             -13.0127
        16        2.0000           -0.4573028             -12.4438
        17        2.0000           -0.4440680             -12.0837
        18        2.0000           -0.3625320              -9.8650 (HOMO)
        19                         -0.3158516              -8.5948 (LUMO)
        20                         -0.2829611              -7.6998
        21                         -0.2260351              -6.1507
        22                         -0.1479981              -4.0272
        23                         -0.0019855              -0.0540
        24                          0.0241536               0.6573
        25                          0.1004278               2.7328
        26                          0.1586594               4.3173
        27                          0.2580240               7.0212
        28                          0.3499123               9.5216
        29                          0.4837125              13.1625
        30                          0.8368365              22.7715
      -------------------------------------------------------------
                  HL-Gap            0.0466803 Eh            1.2702 eV
             Fermi-level           -0.3391918 Eh           -9.2299 eV

   #   Z        covCN         q      C6AA      α(0)
   1   7 N      2.749    -0.094    23.077     7.135
   2   6 C      2.839     0.041    27.064     8.526
   3   7 N      1.899     0.118    19.843     6.604
   4   7 N      0.987    -0.168    24.222     7.077
   5   8 O      1.842    -0.131    16.264     5.446
   6   7 N      1.887    -0.048    22.902     7.094
   7   6 C      2.911     0.042    27.058     8.530
   8   1 H      0.859     0.171     1.270     1.765
   9   1 H      0.927     0.069     2.094     2.263

 Mol. C6AA /au·bohr⁶  :       1289.763699
 Mol. C8AA /au·bohr⁸  :      29515.994452
 Mol. α(0) /au        :         54.439524


Wiberg/Mayer (AO) data.
largest (>0.10) Wiberg bond orders for each atom
          total WBO             WBO to atom ...
     1  N   3.236        C    2 1.086    H    8 0.940    O    5 0.901    N    4 0.120
     2  C   3.853        N    3 1.319    N    1 1.086    C    7 1.058    N    4 0.322
     3  N   3.696        N    4 2.208    C    2 1.319
     4  N   2.832        N    3 2.208    C    2 0.322    N    1 0.120
     5  O   2.260        N    6 1.117    N    1 0.901    C    7 0.123
     6  N   3.108        C    7 1.746    O    5 1.117
     7  C   3.974        N    6 1.746    C    2 1.058    H    9 0.964    O    5 0.123
     8  H   0.971        N    1 0.940
     9  H   0.995        C    7 0.964

molecular dipole:
                 x           y           z       tot (Debye)
 q only:       -0.075       0.069       0.024
   full:       -0.256      -0.015      -0.141       0.744
molecular quadrupole (traceless):
                xx          xy          yy          xz          yz          zz
 q only:       -3.093      -2.568       0.300       5.129       0.056       2.793
  q+dip:       -6.715      -3.199       1.313       7.912       1.289       5.402
   full:       -7.172      -3.707       1.494       8.541       1.462       5.678


           -------------------------------------------------
          | TOTAL ENERGY              -20.867545799007 Eh   |
          | GRADIENT NORM               0.034609539965 Eh/α |
          | HOMO-LUMO GAP               1.270236523620 eV   |
           -------------------------------------------------

------------------------------------------------------------------------
 * finished run on 2021/06/02 at 10:00:06.244     
------------------------------------------------------------------------
 total:
 * wall-time:     0 d,  0 h,  0 min,  0.015 sec
 *  cpu-time:     0 d,  0 h,  0 min,  0.014 sec
 * ratio c/w:     0.982 speedup
 SCF:
 * wall-time:     0 d,  0 h,  0 min,  0.007 sec
 *  cpu-time:     0 d,  0 h,  0 min,  0.007 sec
 * ratio c/w:     0.993 speedup

