      -----------------------------------------------------------      
     |                   =====================                   |     
     |                           x T B                           |     
     |                   =====================                   |     
     |                         S. Grimme                         |     
     |          Mulliken Center for Theoretical Chemistry        |     
     |                    University of Bonn                     |     
     |                 Version 6.1.4 (SAW190525)                 |     
      -----------------------------------------------------------      

   This program is distributed in the hope that it will be useful,
   but WITHOUT ANY WARRANTY; without even the implied warranty of
   MERCHANTABILITY or FITNESS FOR A PARTICULAR PURPOSE.
   
   FOR NON-COMMERCIAL, ACADEMIA USE ONLY.
   
   Cite this work as:
   S. Grimme, C. Bannwarth, P. Shushkov, J. Comput. Theory Chem., 2017,
   13, 1989-2009. DOI: 10.1021/acs.jctc.7b00118
   C. Bannwarth, S. Ehlert and S. Grimme., J. Comput. Theory Chem., 2019,
   just accepted. DOI: 10.1021/acs.jctc.8b01176
   
   for sTDA-xTB:
   S. Grimme and C. Bannwarth, J. Chem. Phys., 2016, 145, 054103.
   DOI: 10.1063/1.4959605
   
   in the mass-spec context:
   V. Asgeirsson, C. Bauer and S. Grimme, Chem. Sci., 2017, 8, 4879.
   DOI: 10.1039/c7sc00601b
   
   for metadynamics refer to:
   S. Grimme, J. Chem. Theory Comput. Article ASAP, 2019,
   DOI: 10.1021/acs.jctc.9b00143
   
   with help from (in alphabetical order)
   C. Bannwarth, F. Bohle, G. Brandenburg, E. Caldeweyher, M. Checinski,
   S. Dohm, S. Ehlert, S. Ehrlich, F. März, H. Neugebauer, J. Pisarek,
   P. Pracht, P. Shushkov, and S. Spicher.
   
 * started run on 2021/06/02 at 10:00:07.051     

           -------------------------------------------------
          |                Calculation Setup                |
           -------------------------------------------------

          program call               : /groups/kemi/koerstz/opt/xtb/6.1/bin/xtb 35.xyz --gfn2 --acc 0.2 --chrg 0
          hostname                   : node305
          coordinate file            : 35.xyz
          omp threads                :                     1
          number of atoms            :                     9
          number of electrons        :                    36
          charge                     :                     0
          spin                       :                   0.0
          first test random number   :      0.94576359744645


########################################################################
# WARNING! Please study the warnings concerning your input carefully
#  - XTBPATH is not set, using XTBHOME instead
########################################################################

           ------------------------------------------------- 
          |                 G F N 2 - x T B                 |
          | Geometry, Frequencies, Noncovalent interactions |
          |            JCTC 2018 parametrisation            |
           ------------------------------------------------- 
             k(s)              :                1.8500
             k(p)              :                2.2300
             k(d)              :                2.2300
             k(f)              :                2.0000
             kEN (H0ij)        :               -2.0000
             D4 a1             :                0.5200
             D4 a2             :                5.0000
             D4 s6             :                1.0000
             D4 s8             :                2.7000
             D4 s9             :                5.0000
             alphaj            :                2.0000

  Z AO/shell   Hii/eV     exponent
  1     Wed Apr 25 08:07:45 CEST 2018   EN: 2.200 GM2: 0.406  GM3: 0.0800  RAES: 1.40
     1s    -10.707211    1.230000
  6     Wed Apr 25 08:07:45 CEST 2018   EN: 2.550 GM2: 0.538  GM3: 0.1500  RAES: 3.00
     2s    -13.970922    2.096432
     2p    -10.063292    1.800000
  7     Wed Apr 25 08:07:45 CEST 2018   EN: 3.040 GM2: 0.461  GM3:-0.0640  RAES: 1.90
     2s    -16.686243    2.339881
     2p    -12.523956    2.014332
  8     Wed Apr 25 08:07:45 CEST 2018   EN: 3.440 GM2: 0.452  GM3:-0.0517  RAES: 1.80
     2s    -20.229985    2.439742
     2p    -15.503117    2.137023


            Z     q(EN)     CN     RAES       Cart. coordinates
     1  N   5.0   -0.33    3.03    1.93    -0.45023    -0.38885    -1.87178
     2  C   4.0    0.28    3.05    3.02    -0.89656    -1.56623     0.44195
     3  N   5.0   -0.15    2.01    1.90    -2.75102    -3.08078     1.00425
     4  N   5.0   -0.17    1.01    1.90    -4.55144    -3.70007     2.04901
     5  O   6.0    0.01    1.99    1.83     2.26603    -0.79449    -2.45141
     6  N   5.0   -0.22    2.07    1.90     3.30543    -1.57120    -0.27822
     7  C   4.0    0.12    3.08    3.02     1.67006    -2.07836     1.40198
     8  H   1.0    0.28    1.00    1.43    -1.57945    -0.49365    -3.45731
     9  H   1.0    0.17    1.00    1.43     2.13931    -2.82778     3.22018

           ------------------------------------------------- 
          |        Self-Consistent Charge Iterations        |
           ------------------------------------------------- 
q/qsh data taken from xtbrestart
CAMM data taken from xtbrestart

          ...................................................
          :                      SETUP                      :
          :.................................................:
          :  # basis functions                  30          :
          :  # atomic orbitals                  30          :
          :  # shells                           16          :
          :  # electrons                        36          :
          :  max. iterations                   250          :
          :  Hamiltonian                  GFN2-xTB          :
          :  restarted?                       true          :
          :  GBSA solvation                  false          :
          :  PC potential                    false          :
          :  electronic temp.          300.0000000     K    :
          :  accuracy                    0.2000000          :
          :  -> integral cutoff          0.3198970E+02      :
          :  -> integral neglect         0.2000000E-08      :
          :  -> SCF convergence          0.2000000E-06 Eh   :
          :  -> wf. convergence          0.2000000E-04 e    :
          :  Broyden damping             0.4000000          :
          ...................................................

 iter      E             dE          RMSdq      gap      omega  full diag
   1    -21.0767490 -0.210767E+02  0.239E+00    1.21       0.0  T
   2    -21.0783291 -0.158008E-02  0.140E+00    1.36       1.0  T
   3    -21.0710090  0.732008E-02  0.108E+00    1.10       1.0  T
   4    -21.0798593 -0.885033E-02  0.276E-01    1.30       1.0  T
   5    -21.0805210 -0.661722E-03  0.943E-02    1.26       1.0  T
   6    -21.0805438 -0.227627E-04  0.375E-02    1.26       1.0  T
   7    -21.0805469 -0.308626E-05  0.580E-03    1.25       5.7  T
   8    -21.0805470 -0.108999E-06  0.254E-03    1.26      13.1  T
   9    -21.0805470 -0.357753E-08  0.660E-04    1.26      50.5  T
  10    -21.0805470 -0.126587E-09  0.276E-04    1.26     120.8  T
  11    -21.0805470 -0.377973E-10  0.492E-05    1.26     677.3  T
  12    -21.0805470 -0.352429E-11  0.223E-05    1.26    1493.4  T

   *** convergence criteria satisfied after 12 iterations ***

         #    Occupation            Energy/Eh            Energy/eV
      -------------------------------------------------------------
         1        2.0000           -0.7723746             -21.0174
       ...           ...                  ...                  ...
        12        2.0000           -0.5389357             -14.6652
        13        2.0000           -0.5189667             -14.1218
        14        2.0000           -0.4878594             -13.2753
        15        2.0000           -0.4794400             -13.0462
        16        2.0000           -0.4571857             -12.4407
        17        2.0000           -0.4425425             -12.0422
        18        2.0000           -0.3611778              -9.8281 (HOMO)
        19                         -0.3150427              -8.5727 (LUMO)
        20                         -0.2814365              -7.6583
        21                         -0.2221468              -6.0449
        22                         -0.1504819              -4.0948
        23                         -0.0090905              -0.2474
       ...                                ...                  ...
        30                          0.8443779              22.9767
      -------------------------------------------------------------
                  HL-Gap            0.0461351 Eh            1.2554 eV
             Fermi-level           -0.3381102 Eh           -9.2004 eV

 SCC (total)                   0 d,  0 h,  0 min,  0.007 sec
 SCC setup                      ...        0 min,  0.000 sec (  1.715%)
 Dispersion                     ...        0 min,  0.000 sec (  0.781%)
 integral evaluation            ...        0 min,  0.001 sec ( 14.828%)
 zeroth order Hamiltonian       ...        0 min,  0.000 sec (  0.441%)
 iterations                     ...        0 min,  0.004 sec ( 49.858%)
 molecular gradient             ...        0 min,  0.002 sec ( 29.603%)
 printout                       ...        0 min,  0.000 sec (  2.232%)

         :::::::::::::::::::::::::::::::::::::::::::::::::::::
         ::                     SUMMARY                     ::
         :::::::::::::::::::::::::::::::::::::::::::::::::::::
         :: total energy              -20.867945592231 Eh   ::
         :: gradient norm               0.039905768434 Eh/α ::
         :: HOMO-LUMO gap               1.255398841978 eV   ::
         ::.................................................::
         :: SCC energy                -21.080547000665 Eh   ::
         :: -> isotropic ES             0.013365479324 Eh   ::
         :: -> anisotropic ES           0.003782682333 Eh   ::
         :: -> anisotropic XC           0.029865576890 Eh   ::
         :: -> dispersion              -0.005847388618 Eh   ::
         :: repulsion energy            0.212598070051 Eh   ::
         :: add. restraining            0.000000000000 Eh   ::
         :::::::::::::::::::::::::::::::::::::::::::::::::::::

           -------------------------------------------------
          |                Property Printout                |
           -------------------------------------------------

    * Orbital Energies and Occupations

         #    Occupation            Energy/Eh            Energy/eV
      -------------------------------------------------------------
         1        2.0000           -0.7723746             -21.0174
       ...           ...                  ...                  ...
         6        2.0000           -0.6459231             -17.5765
         7        2.0000           -0.6165326             -16.7767
         8        2.0000           -0.5991928             -16.3049
         9        2.0000           -0.5905901             -16.0708
        10        2.0000           -0.5783234             -15.7370
        11        2.0000           -0.5704973             -15.5240
        12        2.0000           -0.5389357             -14.6652
        13        2.0000           -0.5189667             -14.1218
        14        2.0000           -0.4878594             -13.2753
        15        2.0000           -0.4794400             -13.0462
        16        2.0000           -0.4571857             -12.4407
        17        2.0000           -0.4425425             -12.0422
        18        2.0000           -0.3611778              -9.8281 (HOMO)
        19                         -0.3150427              -8.5727 (LUMO)
        20                         -0.2814365              -7.6583
        21                         -0.2221468              -6.0449
        22                         -0.1504819              -4.0948
        23                         -0.0090905              -0.2474
        24                          0.0053581               0.1458
        25                          0.1015354               2.7629
        26                          0.1536611               4.1813
        27                          0.2614565               7.1146
        28                          0.3453852               9.3984
        29                          0.5072274              13.8024
        30                          0.8443779              22.9767
      -------------------------------------------------------------
                  HL-Gap            0.0461351 Eh            1.2554 eV
             Fermi-level           -0.3381102 Eh           -9.2004 eV

   #   Z        covCN         q      C6AA      α(0)
   1   7 N      2.727    -0.098    23.167     7.149
   2   6 C      2.849     0.046    26.964     8.511
   3   7 N      1.898     0.117    19.855     6.606
   4   7 N      0.987    -0.171    24.284     7.086
   5   8 O      1.836    -0.137    16.355     5.461
   6   7 N      1.895    -0.045    22.833     7.084
   7   6 C      2.889     0.043    27.032     8.524
   8   1 H      0.859     0.173     1.255     1.755
   9   1 H      0.927     0.072     2.065     2.247

 Mol. C6AA /au·bohr⁶  :       1289.219148
 Mol. C8AA /au·bohr⁸  :      29506.964914
 Mol. α(0) /au        :         54.422864


Wiberg/Mayer (AO) data.
largest (>0.10) Wiberg bond orders for each atom
          total WBO             WBO to atom ...
     1  N   3.226        C    2 1.086    H    8 0.939    O    5 0.899    N    4 0.118
     2  C   3.860        N    3 1.332    N    1 1.086    C    7 1.053    N    4 0.322
     3  N   3.700        N    4 2.198    C    2 1.332
     4  N   2.827        N    3 2.198    C    2 0.322    N    1 0.118
     5  O   2.250        N    6 1.113    N    1 0.899    C    7 0.121
     6  N   3.118        C    7 1.754    O    5 1.113
     7  C   3.974        N    6 1.754    C    2 1.053    H    9 0.962    O    5 0.121
     8  H   0.970        N    1 0.939
     9  H   0.995        C    7 0.962

molecular dipole:
                 x           y           z       tot (Debye)
 q only:       -0.050       0.038       0.015
   full:       -0.219      -0.063      -0.160       0.709
molecular quadrupole (traceless):
                xx          xy          yy          xz          yz          zz
 q only:       -3.254      -2.702       0.386       5.266       0.084       2.868
  q+dip:       -7.114      -3.424       1.478       8.091       1.300       5.636
   full:       -7.457      -3.931       1.647       8.702       1.526       5.809


           -------------------------------------------------
          | TOTAL ENERGY              -20.867945592231 Eh   |
          | GRADIENT NORM               0.039905768434 Eh/α |
          | HOMO-LUMO GAP               1.255398841978 eV   |
           -------------------------------------------------

------------------------------------------------------------------------
 * finished run on 2021/06/02 at 10:00:07.066     
------------------------------------------------------------------------
 total:
 * wall-time:     0 d,  0 h,  0 min,  0.015 sec
 *  cpu-time:     0 d,  0 h,  0 min,  0.014 sec
 * ratio c/w:     0.986 speedup
 SCF:
 * wall-time:     0 d,  0 h,  0 min,  0.007 sec
 *  cpu-time:     0 d,  0 h,  0 min,  0.007 sec
 * ratio c/w:     1.000 speedup

