      -----------------------------------------------------------      
     |                   =====================                   |     
     |                           x T B                           |     
     |                   =====================                   |     
     |                         S. Grimme                         |     
     |          Mulliken Center for Theoretical Chemistry        |     
     |                    University of Bonn                     |     
     |                 Version 6.1.4 (SAW190525)                 |     
      -----------------------------------------------------------      

   This program is distributed in the hope that it will be useful,
   but WITHOUT ANY WARRANTY; without even the implied warranty of
   MERCHANTABILITY or FITNESS FOR A PARTICULAR PURPOSE.
   
   FOR NON-COMMERCIAL, ACADEMIA USE ONLY.
   
   Cite this work as:
   S. Grimme, C. Bannwarth, P. Shushkov, J. Comput. Theory Chem., 2017,
   13, 1989-2009. DOI: 10.1021/acs.jctc.7b00118
   C. Bannwarth, S. Ehlert and S. Grimme., J. Comput. Theory Chem., 2019,
   just accepted. DOI: 10.1021/acs.jctc.8b01176
   
   for sTDA-xTB:
   S. Grimme and C. Bannwarth, J. Chem. Phys., 2016, 145, 054103.
   DOI: 10.1063/1.4959605
   
   in the mass-spec context:
   V. Asgeirsson, C. Bauer and S. Grimme, Chem. Sci., 2017, 8, 4879.
   DOI: 10.1039/c7sc00601b
   
   for metadynamics refer to:
   S. Grimme, J. Chem. Theory Comput. Article ASAP, 2019,
   DOI: 10.1021/acs.jctc.9b00143
   
   with help from (in alphabetical order)
   C. Bannwarth, F. Bohle, G. Brandenburg, E. Caldeweyher, M. Checinski,
   S. Dohm, S. Ehlert, S. Ehrlich, F. März, H. Neugebauer, J. Pisarek,
   P. Pracht, P. Shushkov, and S. Spicher.
   
 * started run on 2021/06/02 at 10:00:07.215     

           -------------------------------------------------
          |                Calculation Setup                |
           -------------------------------------------------

          program call               : /groups/kemi/koerstz/opt/xtb/6.1/bin/xtb 36.xyz --gfn2 --acc 0.2 --chrg 0
          hostname                   : node305
          coordinate file            : 36.xyz
          omp threads                :                     1
          number of atoms            :                     9
          number of electrons        :                    36
          charge                     :                     0
          spin                       :                   0.0
          first test random number   :      0.47245015304455


########################################################################
# WARNING! Please study the warnings concerning your input carefully
#  - XTBPATH is not set, using XTBHOME instead
########################################################################

           ------------------------------------------------- 
          |                 G F N 2 - x T B                 |
          | Geometry, Frequencies, Noncovalent interactions |
          |            JCTC 2018 parametrisation            |
           ------------------------------------------------- 
             k(s)              :                1.8500
             k(p)              :                2.2300
             k(d)              :                2.2300
             k(f)              :                2.0000
             kEN (H0ij)        :               -2.0000
             D4 a1             :                0.5200
             D4 a2             :                5.0000
             D4 s6             :                1.0000
             D4 s8             :                2.7000
             D4 s9             :                5.0000
             alphaj            :                2.0000

  Z AO/shell   Hii/eV     exponent
  1     Wed Apr 25 08:07:45 CEST 2018   EN: 2.200 GM2: 0.406  GM3: 0.0800  RAES: 1.40
     1s    -10.707211    1.230000
  6     Wed Apr 25 08:07:45 CEST 2018   EN: 2.550 GM2: 0.538  GM3: 0.1500  RAES: 3.00
     2s    -13.970922    2.096432
     2p    -10.063292    1.800000
  7     Wed Apr 25 08:07:45 CEST 2018   EN: 3.040 GM2: 0.461  GM3:-0.0640  RAES: 1.90
     2s    -16.686243    2.339881
     2p    -12.523956    2.014332
  8     Wed Apr 25 08:07:45 CEST 2018   EN: 3.440 GM2: 0.452  GM3:-0.0517  RAES: 1.80
     2s    -20.229985    2.439742
     2p    -15.503117    2.137023


            Z     q(EN)     CN     RAES       Cart. coordinates
     1  N   5.0   -0.33    3.07    1.93    -0.44874    -0.51880    -1.89912
     2  C   4.0    0.28    3.06    3.02    -0.87991    -1.63212     0.43423
     3  N   5.0   -0.15    2.01    1.90    -2.76250    -3.10784     1.02156
     4  N   5.0   -0.17    1.01    1.90    -4.58614    -3.65904     2.03204
     5  O   6.0    0.01    2.02    1.83     2.21939    -0.72628    -2.40027
     6  N   5.0   -0.22    2.07    1.90     3.32177    -1.48678    -0.26506
     7  C   4.0    0.13    3.11    3.02     1.67107    -2.04915     1.38346
     8  H   1.0    0.29    1.00    1.43    -1.55252    -0.51487    -3.47760
     9  H   1.0    0.17    0.99    1.43     2.16969    -2.80653     3.22939

           ------------------------------------------------- 
          |        Self-Consistent Charge Iterations        |
           ------------------------------------------------- 
q/qsh data taken from xtbrestart
CAMM data taken from xtbrestart

          ...................................................
          :                      SETUP                      :
          :.................................................:
          :  # basis functions                  30          :
          :  # atomic orbitals                  30          :
          :  # shells                           16          :
          :  # electrons                        36          :
          :  max. iterations                   250          :
          :  Hamiltonian                  GFN2-xTB          :
          :  restarted?                       true          :
          :  GBSA solvation                  false          :
          :  PC potential                    false          :
          :  electronic temp.          300.0000000     K    :
          :  accuracy                    0.2000000          :
          :  -> integral cutoff          0.3198970E+02      :
          :  -> integral neglect         0.2000000E-08      :
          :  -> SCF convergence          0.2000000E-06 Eh   :
          :  -> wf. convergence          0.2000000E-04 e    :
          :  Broyden damping             0.4000000          :
          ...................................................

 iter      E             dE          RMSdq      gap      omega  full diag
   1    -20.8680536 -0.208681E+02  0.675E+00    0.63       0.0  T
   2    -20.9789296 -0.110876E+00  0.527E+00    2.17       1.0  T
   3    -21.0704935 -0.915639E-01  0.293E+00    1.30       1.0  T
   4    -21.0734136 -0.292004E-02  0.165E+00    1.40       1.0  T
   5    -21.0851983 -0.117848E-01  0.550E-01    1.09       1.0  T
   6    -21.0872587 -0.206042E-02  0.190E-01    1.17       1.0  T
   7    -21.0872598 -0.111259E-05  0.127E-01    1.20       1.0  T
   8    -21.0873291 -0.692705E-04  0.362E-02    1.18       1.0  T
   9    -21.0873328 -0.371956E-05  0.127E-02    1.18       2.6  T
  10    -21.0873329 -0.283883E-07  0.705E-03    1.18       4.7  T
  11    -21.0873330 -0.169888E-06  0.130E-03    1.18      25.6  T
  12    -21.0873330 -0.228104E-08  0.219E-04    1.18     151.9  T
  13    -21.0873330 -0.615152E-10  0.105E-04    1.18     316.4  T
  14    -21.0873330 -0.184421E-10  0.338E-05    1.18     985.0  T

   *** convergence criteria satisfied after 14 iterations ***

         #    Occupation            Energy/Eh            Energy/eV
      -------------------------------------------------------------
         1        2.0000           -0.7783082             -21.1788
       ...           ...                  ...                  ...
        12        2.0000           -0.5371092             -14.6155
        13        2.0000           -0.5168194             -14.0634
        14        2.0000           -0.4849586             -13.1964
        15        2.0000           -0.4801140             -13.0646
        16        2.0000           -0.4573948             -12.4463
        17        2.0000           -0.4424617             -12.0400
        18        2.0000           -0.3525711              -9.5939 (HOMO)
        19                         -0.3092563              -8.4153 (LUMO)
        20                         -0.2776821              -7.5561
        21                         -0.2075934              -5.6489
        22                         -0.1243023              -3.3824
        23                         -0.0032003              -0.0871
       ...                                ...                  ...
        30                          0.8734656              23.7682
      -------------------------------------------------------------
                  HL-Gap            0.0433148 Eh            1.1787 eV
             Fermi-level           -0.3309137 Eh           -9.0046 eV

 SCC (total)                   0 d,  0 h,  0 min,  0.007 sec
 SCC setup                      ...        0 min,  0.000 sec (  1.701%)
 Dispersion                     ...        0 min,  0.000 sec (  0.804%)
 integral evaluation            ...        0 min,  0.001 sec ( 14.529%)
 zeroth order Hamiltonian       ...        0 min,  0.000 sec (  0.421%)
 iterations                     ...        0 min,  0.004 sec ( 53.289%)
 molecular gradient             ...        0 min,  0.002 sec ( 26.518%)
 printout                       ...        0 min,  0.000 sec (  2.323%)

         :::::::::::::::::::::::::::::::::::::::::::::::::::::
         ::                     SUMMARY                     ::
         :::::::::::::::::::::::::::::::::::::::::::::::::::::
         :: total energy              -20.867966069950 Eh   ::
         :: gradient norm               0.043741072605 Eh/α ::
         :: HOMO-LUMO gap               1.178656631914 eV   ::
         ::.................................................::
         :: SCC energy                -21.087333039340 Eh   ::
         :: -> isotropic ES             0.012631335246 Eh   ::
         :: -> anisotropic ES           0.004551161593 Eh   ::
         :: -> anisotropic XC           0.028918421562 Eh   ::
         :: -> dispersion              -0.005850394990 Eh   ::
         :: repulsion energy            0.219363696299 Eh   ::
         :: add. restraining            0.000000000000 Eh   ::
         :::::::::::::::::::::::::::::::::::::::::::::::::::::

           -------------------------------------------------
          |                Property Printout                |
           -------------------------------------------------

    * Orbital Energies and Occupations

         #    Occupation            Energy/Eh            Energy/eV
      -------------------------------------------------------------
         1        2.0000           -0.7783082             -21.1788
       ...           ...                  ...                  ...
         6        2.0000           -0.6460159             -17.5790
         7        2.0000           -0.6186450             -16.8342
         8        2.0000           -0.6036523             -16.4262
         9        2.0000           -0.5906320             -16.0719
        10        2.0000           -0.5782927             -15.7361
        11        2.0000           -0.5697717             -15.5043
        12        2.0000           -0.5371092             -14.6155
        13        2.0000           -0.5168194             -14.0634
        14        2.0000           -0.4849586             -13.1964
        15        2.0000           -0.4801140             -13.0646
        16        2.0000           -0.4573948             -12.4463
        17        2.0000           -0.4424617             -12.0400
        18        2.0000           -0.3525711              -9.5939 (HOMO)
        19                         -0.3092563              -8.4153 (LUMO)
        20                         -0.2776821              -7.5561
        21                         -0.2075934              -5.6489
        22                         -0.1243023              -3.3824
        23                         -0.0032003              -0.0871
        24                          0.0150748               0.4102
        25                          0.1139199               3.0999
        26                          0.1567124               4.2644
        27                          0.2674554               7.2778
        28                          0.3680693              10.0157
        29                          0.5104133              13.8891
        30                          0.8734656              23.7682
      -------------------------------------------------------------
                  HL-Gap            0.0433148 Eh            1.1787 eV
             Fermi-level           -0.3309137 Eh           -9.0046 eV

   #   Z        covCN         q      C6AA      α(0)
   1   7 N      2.765    -0.087    22.930     7.112
   2   6 C      2.853     0.044    27.010     8.518
   3   7 N      1.898     0.115    19.891     6.612
   4   7 N      0.988    -0.176    24.393     7.102
   5   8 O      1.865    -0.124    16.156     5.428
   6   7 N      1.900    -0.056    23.051     7.118
   7   6 C      2.916     0.044    27.012     8.523
   8   1 H      0.860     0.173     1.254     1.754
   9   1 H      0.925     0.066     2.130     2.282

 Mol. C6AA /au·bohr⁶  :       1290.147014
 Mol. C8AA /au·bohr⁸  :      29520.974508
 Mol. α(0) /au        :         54.448901


Wiberg/Mayer (AO) data.
largest (>0.10) Wiberg bond orders for each atom
          total WBO             WBO to atom ...
     1  N   3.256        C    2 1.077    H    8 0.939    O    5 0.925    N    4 0.125
     2  C   3.861        N    3 1.321    C    7 1.082    N    1 1.077    N    4 0.311
     3  N   3.696        N    4 2.197    C    2 1.321
     4  N   2.817        N    3 2.197    C    2 0.311    N    1 0.125
     5  O   2.262        N    6 1.103    N    1 0.925    C    7 0.116
     6  N   3.092        C    7 1.736    O    5 1.103
     7  C   3.975        N    6 1.736    C    2 1.082    H    9 0.962    O    5 0.116
     8  H   0.970        N    1 0.939
     9  H   0.996        C    7 0.962

molecular dipole:
                 x           y           z       tot (Debye)
 q only:       -0.024       0.067      -0.072
   full:       -0.197      -0.011      -0.249       0.808
molecular quadrupole (traceless):
                xx          xy          yy          xz          yz          zz
 q only:       -3.505      -2.785       0.385       5.146       0.261       3.121
  q+dip:       -7.615      -3.721       1.705       8.027       1.437       5.909
   full:       -8.013      -4.165       1.853       8.608       1.605       6.160


           -------------------------------------------------
          | TOTAL ENERGY              -20.867966069950 Eh   |
          | GRADIENT NORM               0.043741072605 Eh/α |
          | HOMO-LUMO GAP               1.178656631914 eV   |
           -------------------------------------------------

------------------------------------------------------------------------
 * finished run on 2021/06/02 at 10:00:07.230     
------------------------------------------------------------------------
 total:
 * wall-time:     0 d,  0 h,  0 min,  0.015 sec
 *  cpu-time:     0 d,  0 h,  0 min,  0.015 sec
 * ratio c/w:     0.986 speedup
 SCF:
 * wall-time:     0 d,  0 h,  0 min,  0.007 sec
 *  cpu-time:     0 d,  0 h,  0 min,  0.007 sec
 * ratio c/w:     1.000 speedup

