      -----------------------------------------------------------      
     |                   =====================                   |     
     |                           x T B                           |     
     |                   =====================                   |     
     |                         S. Grimme                         |     
     |          Mulliken Center for Theoretical Chemistry        |     
     |                    University of Bonn                     |     
     |                 Version 6.1.4 (SAW190525)                 |     
      -----------------------------------------------------------      

   This program is distributed in the hope that it will be useful,
   but WITHOUT ANY WARRANTY; without even the implied warranty of
   MERCHANTABILITY or FITNESS FOR A PARTICULAR PURPOSE.
   
   FOR NON-COMMERCIAL, ACADEMIA USE ONLY.
   
   Cite this work as:
   S. Grimme, C. Bannwarth, P. Shushkov, J. Comput. Theory Chem., 2017,
   13, 1989-2009. DOI: 10.1021/acs.jctc.7b00118
   C. Bannwarth, S. Ehlert and S. Grimme., J. Comput. Theory Chem., 2019,
   just accepted. DOI: 10.1021/acs.jctc.8b01176
   
   for sTDA-xTB:
   S. Grimme and C. Bannwarth, J. Chem. Phys., 2016, 145, 054103.
   DOI: 10.1063/1.4959605
   
   in the mass-spec context:
   V. Asgeirsson, C. Bauer and S. Grimme, Chem. Sci., 2017, 8, 4879.
   DOI: 10.1039/c7sc00601b
   
   for metadynamics refer to:
   S. Grimme, J. Chem. Theory Comput. Article ASAP, 2019,
   DOI: 10.1021/acs.jctc.9b00143
   
   with help from (in alphabetical order)
   C. Bannwarth, F. Bohle, G. Brandenburg, E. Caldeweyher, M. Checinski,
   S. Dohm, S. Ehlert, S. Ehrlich, F. März, H. Neugebauer, J. Pisarek,
   P. Pracht, P. Shushkov, and S. Spicher.
   
 * started run on 2021/06/02 at 10:00:06.269     

           -------------------------------------------------
          |                Calculation Setup                |
           -------------------------------------------------

          program call               : /groups/kemi/koerstz/opt/xtb/6.1/bin/xtb 37.xyz --gfn2 --acc 0.2 --chrg 0
          hostname                   : node305
          coordinate file            : 37.xyz
          omp threads                :                     1
          number of atoms            :                     9
          number of electrons        :                    36
          charge                     :                     0
          spin                       :                   0.0
          first test random number   :      0.08122572251790


########################################################################
# WARNING! Please study the warnings concerning your input carefully
#  - XTBPATH is not set, using XTBHOME instead
########################################################################

           ------------------------------------------------- 
          |                 G F N 2 - x T B                 |
          | Geometry, Frequencies, Noncovalent interactions |
          |            JCTC 2018 parametrisation            |
           ------------------------------------------------- 
             k(s)              :                1.8500
             k(p)              :                2.2300
             k(d)              :                2.2300
             k(f)              :                2.0000
             kEN (H0ij)        :               -2.0000
             D4 a1             :                0.5200
             D4 a2             :                5.0000
             D4 s6             :                1.0000
             D4 s8             :                2.7000
             D4 s9             :                5.0000
             alphaj            :                2.0000

  Z AO/shell   Hii/eV     exponent
  1     Wed Apr 25 08:07:45 CEST 2018   EN: 2.200 GM2: 0.406  GM3: 0.0800  RAES: 1.40
     1s    -10.707211    1.230000
  6     Wed Apr 25 08:07:45 CEST 2018   EN: 2.550 GM2: 0.538  GM3: 0.1500  RAES: 3.00
     2s    -13.970922    2.096432
     2p    -10.063292    1.800000
  7     Wed Apr 25 08:07:45 CEST 2018   EN: 3.040 GM2: 0.461  GM3:-0.0640  RAES: 1.90
     2s    -16.686243    2.339881
     2p    -12.523956    2.014332
  8     Wed Apr 25 08:07:45 CEST 2018   EN: 3.440 GM2: 0.452  GM3:-0.0517  RAES: 1.80
     2s    -20.229985    2.439742
     2p    -15.503117    2.137023


            Z     q(EN)     CN     RAES       Cart. coordinates
     1  N   5.0   -0.34    3.07    1.93    -0.43968    -0.62291    -1.95766
     2  C   4.0    0.28    3.06    3.02    -0.88250    -1.69610     0.39965
     3  N   5.0   -0.15    2.01    1.90    -2.76420    -3.12177     1.00960
     4  N   5.0   -0.17    1.01    1.90    -4.55762    -3.71253     2.06556
     5  O   6.0    0.02    2.02    1.83     2.25234    -0.70907    -2.39570
     6  N   5.0   -0.22    2.07    1.90     3.31841    -1.48071    -0.23910
     7  C   4.0    0.13    3.10    3.02     1.65886    -2.05128     1.39462
     8  H   1.0    0.29    1.00    1.43    -1.57881    -0.34192    -3.45046
     9  H   1.0    0.17    1.00    1.43     2.14533    -2.76511     3.23215

           ------------------------------------------------- 
          |        Self-Consistent Charge Iterations        |
           ------------------------------------------------- 
q/qsh data taken from xtbrestart
CAMM data taken from xtbrestart

          ...................................................
          :                      SETUP                      :
          :.................................................:
          :  # basis functions                  30          :
          :  # atomic orbitals                  30          :
          :  # shells                           16          :
          :  # electrons                        36          :
          :  max. iterations                   250          :
          :  Hamiltonian                  GFN2-xTB          :
          :  restarted?                       true          :
          :  GBSA solvation                  false          :
          :  PC potential                    false          :
          :  electronic temp.          300.0000000     K    :
          :  accuracy                    0.2000000          :
          :  -> integral cutoff          0.3198970E+02      :
          :  -> integral neglect         0.2000000E-08      :
          :  -> SCF convergence          0.2000000E-06 Eh   :
          :  -> wf. convergence          0.2000000E-04 e    :
          :  Broyden damping             0.4000000          :
          ...................................................

 iter      E             dE          RMSdq      gap      omega  full diag
   1    -20.6458225 -0.206458E+02  0.673E+00    0.36       0.0  T
   2    -20.9060071 -0.260185E+00  0.594E+00    2.28       1.0  T
   3    -21.0786851 -0.172678E+00  0.311E+00    1.61       1.0  T
   4    -21.0797835 -0.109840E-02  0.206E+00    1.51       1.0  T
   5    -21.0846288 -0.484526E-02  0.848E-01    0.94       1.0  T
   6    -21.0911070 -0.647819E-02  0.195E-01    1.07       1.0  T
   7    -21.0913333 -0.226377E-03  0.106E-01    1.09       1.0  T
   8    -21.0913478 -0.145066E-04  0.439E-02    1.08       1.0  T
   9    -21.0913511 -0.321140E-05  0.225E-02    1.09       1.5  T
  10    -21.0913533 -0.219919E-05  0.740E-03    1.09       4.5  T
  11    -21.0913533 -0.685277E-07  0.197E-03    1.09      16.9  T
  12    -21.0913533 -0.768096E-08  0.764E-04    1.09      43.6  T
  13    -21.0913533  0.808740E-10  0.539E-04    1.09      61.9  T
  14    -21.0913533 -0.232726E-08  0.112E-04    1.09     297.5  T
  15    -21.0913533 -0.518341E-10  0.149E-05    1.09    2234.2  T

   *** convergence criteria satisfied after 15 iterations ***

         #    Occupation            Energy/Eh            Energy/eV
      -------------------------------------------------------------
         1        2.0000           -0.7764019             -21.1270
       ...           ...                  ...                  ...
        12        2.0000           -0.5363817             -14.5957
        13        2.0000           -0.5177718             -14.0893
        14        2.0000           -0.4823762             -13.1261
        15        2.0000           -0.4795129             -13.0482
        16        2.0000           -0.4572397             -12.4421
        17        2.0000           -0.4420977             -12.0301
        18        2.0000           -0.3481334              -9.4732 (HOMO)
        19                         -0.3081703              -8.3857 (LUMO)
        20                         -0.2751809              -7.4881
        21                         -0.2003217              -5.4510
        22                         -0.1343349              -3.6554
        23                         -0.0042703              -0.1162
       ...                                ...                  ...
        30                          0.8922366              24.2790
      -------------------------------------------------------------
                  HL-Gap            0.0399631 Eh            1.0875 eV
             Fermi-level           -0.3281519 Eh           -8.9295 eV

 SCC (total)                   0 d,  0 h,  0 min,  0.008 sec
 SCC setup                      ...        0 min,  0.000 sec (  1.643%)
 Dispersion                     ...        0 min,  0.000 sec (  0.725%)
 integral evaluation            ...        0 min,  0.001 sec ( 14.019%)
 zeroth order Hamiltonian       ...        0 min,  0.000 sec (  0.394%)
 iterations                     ...        0 min,  0.004 sec ( 55.217%)
 molecular gradient             ...        0 min,  0.002 sec ( 25.315%)
 printout                       ...        0 min,  0.000 sec (  2.210%)

         :::::::::::::::::::::::::::::::::::::::::::::::::::::
         ::                     SUMMARY                     ::
         :::::::::::::::::::::::::::::::::::::::::::::::::::::
         :: total energy              -20.866524721993 Eh   ::
         :: gradient norm               0.021648334653 Eh/α ::
         :: HOMO-LUMO gap               1.087450437272 eV   ::
         ::.................................................::
         :: SCC energy                -21.091353335611 Eh   ::
         :: -> isotropic ES             0.012932890962 Eh   ::
         :: -> anisotropic ES           0.004333282551 Eh   ::
         :: -> anisotropic XC           0.028320202596 Eh   ::
         :: -> dispersion              -0.005842248764 Eh   ::
         :: repulsion energy            0.224825318785 Eh   ::
         :: add. restraining            0.000000000000 Eh   ::
         :::::::::::::::::::::::::::::::::::::::::::::::::::::

           -------------------------------------------------
          |                Property Printout                |
           -------------------------------------------------

    * Orbital Energies and Occupations

         #    Occupation            Energy/Eh            Energy/eV
      -------------------------------------------------------------
         1        2.0000           -0.7764019             -21.1270
       ...           ...                  ...                  ...
         6        2.0000           -0.6459436             -17.5770
         7        2.0000           -0.6161403             -16.7660
         8        2.0000           -0.6049103             -16.4604
         9        2.0000           -0.5905839             -16.0706
        10        2.0000           -0.5779153             -15.7259
        11        2.0000           -0.5680143             -15.4565
        12        2.0000           -0.5363817             -14.5957
        13        2.0000           -0.5177718             -14.0893
        14        2.0000           -0.4823762             -13.1261
        15        2.0000           -0.4795129             -13.0482
        16        2.0000           -0.4572397             -12.4421
        17        2.0000           -0.4420977             -12.0301
        18        2.0000           -0.3481334              -9.4732 (HOMO)
        19                         -0.3081703              -8.3857 (LUMO)
        20                         -0.2751809              -7.4881
        21                         -0.2003217              -5.4510
        22                         -0.1343349              -3.6554
        23                         -0.0042703              -0.1162
        24                          0.0201689               0.5488
        25                          0.1317361               3.5847
        26                          0.1680304               4.5723
        27                          0.2811040               7.6492
        28                          0.3764856              10.2447
        29                          0.5166361              14.0584
        30                          0.8922366              24.2790
      -------------------------------------------------------------
                  HL-Gap            0.0399631 Eh            1.0875 eV
             Fermi-level           -0.3281519 Eh           -8.9295 eV

   #   Z        covCN         q      C6AA      α(0)
   1   7 N      2.763    -0.088    22.945     7.114
   2   6 C      2.855     0.047    26.951     8.509
   3   7 N      1.898     0.116    19.882     6.611
   4   7 N      0.988    -0.184    24.558     7.125
   5   8 O      1.859    -0.123    16.138     5.425
   6   7 N      1.902    -0.055    23.037     7.116
   7   6 C      2.910     0.043    27.025     8.524
   8   1 H      0.860     0.174     1.249     1.751
   9   1 H      0.926     0.069     2.095     2.263

 Mol. C6AA /au·bohr⁶  :       1289.786014
 Mol. C8AA /au·bohr⁸  :      29517.976415
 Mol. α(0) /au        :         54.438609


Wiberg/Mayer (AO) data.
largest (>0.10) Wiberg bond orders for each atom
          total WBO             WBO to atom ...
     1  N   3.264        C    2 1.073    H    8 0.943    O    5 0.925    N    4 0.128    N    3 0.104
     2  C   3.871        N    3 1.341    C    7 1.082    N    1 1.073    N    4 0.306
     3  N   3.701        N    4 2.179    C    2 1.341    N    1 0.104
     4  N   2.803        N    3 2.179    C    2 0.306    N    1 0.128
     5  O   2.259        N    6 1.103    N    1 0.925    C    7 0.114
     6  N   3.095        C    7 1.735    O    5 1.103
     7  C   3.976        N    6 1.735    C    2 1.082    H    9 0.962    O    5 0.114
     8  H   0.970        N    1 0.943
     9  H   0.995        C    7 0.962

molecular dipole:
                 x           y           z       tot (Debye)
 q only:        0.000       0.125      -0.082
   full:       -0.184       0.120      -0.265       0.876
molecular quadrupole (traceless):
                xx          xy          yy          xz          yz          zz
 q only:       -3.481      -3.086       0.292       5.319       0.210       3.189
  q+dip:       -7.514      -4.266       1.539       8.231       1.186       5.974
   full:       -7.885      -4.696       1.680       8.807       1.354       6.205


           -------------------------------------------------
          | TOTAL ENERGY              -20.866524721993 Eh   |
          | GRADIENT NORM               0.021648334653 Eh/α |
          | HOMO-LUMO GAP               1.087450437272 eV   |
           -------------------------------------------------

------------------------------------------------------------------------
 * finished run on 2021/06/02 at 10:00:06.284     
------------------------------------------------------------------------
 total:
 * wall-time:     0 d,  0 h,  0 min,  0.015 sec
 *  cpu-time:     0 d,  0 h,  0 min,  0.015 sec
 * ratio c/w:     0.986 speedup
 SCF:
 * wall-time:     0 d,  0 h,  0 min,  0.008 sec
 *  cpu-time:     0 d,  0 h,  0 min,  0.008 sec
 * ratio c/w:     1.000 speedup

