      -----------------------------------------------------------      
     |                   =====================                   |     
     |                           x T B                           |     
     |                   =====================                   |     
     |                         S. Grimme                         |     
     |          Mulliken Center for Theoretical Chemistry        |     
     |                    University of Bonn                     |     
     |                 Version 6.1.4 (SAW190525)                 |     
      -----------------------------------------------------------      

   This program is distributed in the hope that it will be useful,
   but WITHOUT ANY WARRANTY; without even the implied warranty of
   MERCHANTABILITY or FITNESS FOR A PARTICULAR PURPOSE.
   
   FOR NON-COMMERCIAL, ACADEMIA USE ONLY.
   
   Cite this work as:
   S. Grimme, C. Bannwarth, P. Shushkov, J. Comput. Theory Chem., 2017,
   13, 1989-2009. DOI: 10.1021/acs.jctc.7b00118
   C. Bannwarth, S. Ehlert and S. Grimme., J. Comput. Theory Chem., 2019,
   just accepted. DOI: 10.1021/acs.jctc.8b01176
   
   for sTDA-xTB:
   S. Grimme and C. Bannwarth, J. Chem. Phys., 2016, 145, 054103.
   DOI: 10.1063/1.4959605
   
   in the mass-spec context:
   V. Asgeirsson, C. Bauer and S. Grimme, Chem. Sci., 2017, 8, 4879.
   DOI: 10.1039/c7sc00601b
   
   for metadynamics refer to:
   S. Grimme, J. Chem. Theory Comput. Article ASAP, 2019,
   DOI: 10.1021/acs.jctc.9b00143
   
   with help from (in alphabetical order)
   C. Bannwarth, F. Bohle, G. Brandenburg, E. Caldeweyher, M. Checinski,
   S. Dohm, S. Ehlert, S. Ehrlich, F. März, H. Neugebauer, J. Pisarek,
   P. Pracht, P. Shushkov, and S. Spicher.
   
 * started run on 2021/06/02 at 10:00:06.409     

           -------------------------------------------------
          |                Calculation Setup                |
           -------------------------------------------------

          program call               : /groups/kemi/koerstz/opt/xtb/6.1/bin/xtb 4.xyz --gfn2 --acc 0.2 --chrg 0
          hostname                   : node305
          coordinate file            : 4.xyz
          omp threads                :                     1
          number of atoms            :                     9
          number of electrons        :                    36
          charge                     :                     0
          spin                       :                   0.0
          first test random number   :      0.53781359908830


########################################################################
# WARNING! Please study the warnings concerning your input carefully
#  - XTBPATH is not set, using XTBHOME instead
########################################################################

           ------------------------------------------------- 
          |                 G F N 2 - x T B                 |
          | Geometry, Frequencies, Noncovalent interactions |
          |            JCTC 2018 parametrisation            |
           ------------------------------------------------- 
             k(s)              :                1.8500
             k(p)              :                2.2300
             k(d)              :                2.2300
             k(f)              :                2.0000
             kEN (H0ij)        :               -2.0000
             D4 a1             :                0.5200
             D4 a2             :                5.0000
             D4 s6             :                1.0000
             D4 s8             :                2.7000
             D4 s9             :                5.0000
             alphaj            :                2.0000

  Z AO/shell   Hii/eV     exponent
  1     Wed Apr 25 08:07:45 CEST 2018   EN: 2.200 GM2: 0.406  GM3: 0.0800  RAES: 1.40
     1s    -10.707211    1.230000
  6     Wed Apr 25 08:07:45 CEST 2018   EN: 2.550 GM2: 0.538  GM3: 0.1500  RAES: 3.00
     2s    -13.970922    2.096432
     2p    -10.063292    1.800000
  7     Wed Apr 25 08:07:45 CEST 2018   EN: 3.040 GM2: 0.461  GM3:-0.0640  RAES: 1.90
     2s    -16.686243    2.339881
     2p    -12.523956    2.014332
  8     Wed Apr 25 08:07:45 CEST 2018   EN: 3.440 GM2: 0.452  GM3:-0.0517  RAES: 1.80
     2s    -20.229985    2.439742
     2p    -15.503117    2.137023


            Z     q(EN)     CN     RAES       Cart. coordinates
     1  N   5.0   -0.46    2.01    1.90    -1.50738     1.11568    -0.59381
     2  C   4.0    0.30    3.03    3.02    -0.42237    -0.93417    -0.08173
     3  N   5.0   -0.04    2.46    1.90    -1.47771    -3.35160    -0.71318
     4  N   5.0   -0.19    1.00    1.90    -3.28648    -4.21729    -1.47737
     5  O   6.0   -0.04    1.46    1.80     1.15358    -5.27549     0.34657
     6  N   5.0   -0.19    2.03    1.90     2.68758    -3.65709     1.21251
     7  C   4.0    0.12    3.04    3.02     2.01035    -1.31968     1.07307
     8  H   1.0    0.33    1.00    1.43    -3.21332     0.97842    -1.46796
     9  H   1.0    0.17    1.00    1.43     3.20788     0.15981     1.76054

           ------------------------------------------------- 
          |        Self-Consistent Charge Iterations        |
           ------------------------------------------------- 
q/qsh data taken from xtbrestart
CAMM data taken from xtbrestart

          ...................................................
          :                      SETUP                      :
          :.................................................:
          :  # basis functions                  30          :
          :  # atomic orbitals                  30          :
          :  # shells                           16          :
          :  # electrons                        36          :
          :  max. iterations                   250          :
          :  Hamiltonian                  GFN2-xTB          :
          :  restarted?                       true          :
          :  GBSA solvation                  false          :
          :  PC potential                    false          :
          :  electronic temp.          300.0000000     K    :
          :  accuracy                    0.2000000          :
          :  -> integral cutoff          0.3198970E+02      :
          :  -> integral neglect         0.2000000E-08      :
          :  -> SCF convergence          0.2000000E-06 Eh   :
          :  -> wf. convergence          0.2000000E-04 e    :
          :  Broyden damping             0.4000000          :
          ...................................................

 iter      E             dE          RMSdq      gap      omega  full diag
   1    -21.0940459 -0.210940E+02  0.236E+00    0.82       0.0  T
   2    -21.0965787 -0.253283E-02  0.133E+00    0.93       1.0  T
   3    -21.0932729  0.330578E-02  0.896E-01    0.66       1.0  T
   4    -21.0993948 -0.612183E-02  0.193E-01    0.80       1.0  T
   5    -21.0995910 -0.196228E-03  0.822E-02    0.78       1.0  T
   6    -21.0996005 -0.947465E-05  0.171E-02    0.77       2.0  T
   7    -21.0996012 -0.716422E-06  0.851E-03    0.77       3.9  T
   8    -21.0996012 -0.513199E-07  0.328E-03    0.77      10.2  T
   9    -21.0996013 -0.480719E-07  0.102E-03    0.77      32.5  T
  10    -21.0996013 -0.237842E-08  0.537E-04    0.77      62.1  T
  11    -21.0996013 -0.823395E-09  0.131E-04    0.77     254.8  T
  12    -21.0996013 -0.586020E-10  0.514E-05    0.77     648.8  T

   *** convergence criteria satisfied after 12 iterations ***

         #    Occupation            Energy/Eh            Energy/eV
      -------------------------------------------------------------
         1        2.0000           -0.7598129             -20.6756
       ...           ...                  ...                  ...
        12        2.0000           -0.5397770             -14.6881
        13        2.0000           -0.5321679             -14.4810
        14        2.0000           -0.5024633             -13.6727
        15        2.0000           -0.4951171             -13.4728
        16        2.0000           -0.4564011             -12.4193
        17        2.0000           -0.4399987             -11.9730
        18        2.0000           -0.3978664             -10.8265 (HOMO)
        19        0.0000           -0.3695703             -10.0565 (LUMO)
        20                         -0.2929405              -7.9713
        21                         -0.2869131              -7.8073
        22                         -0.1996502              -5.4328
        23                          0.0007294               0.0198
       ...                                ...                  ...
        30                          0.7401048              20.1393
      -------------------------------------------------------------
                  HL-Gap            0.0282961 Eh            0.7700 eV
             Fermi-level           -0.3837183 Eh          -10.4415 eV

 SCC (total)                   0 d,  0 h,  0 min,  0.007 sec
 SCC setup                      ...        0 min,  0.000 sec (  2.071%)
 Dispersion                     ...        0 min,  0.000 sec (  0.749%)
 integral evaluation            ...        0 min,  0.001 sec ( 15.008%)
 zeroth order Hamiltonian       ...        0 min,  0.000 sec (  0.444%)
 iterations                     ...        0 min,  0.004 sec ( 51.221%)
 molecular gradient             ...        0 min,  0.002 sec ( 27.638%)
 printout                       ...        0 min,  0.000 sec (  2.405%)

         :::::::::::::::::::::::::::::::::::::::::::::::::::::
         ::                     SUMMARY                     ::
         :::::::::::::::::::::::::::::::::::::::::::::::::::::
         :: total energy              -20.866971506950 Eh   ::
         :: gradient norm               0.008149633977 Eh/α ::
         :: HOMO-LUMO gap               0.769976216406 eV   ::
         ::.................................................::
         :: SCC energy                -21.099601291365 Eh   ::
         :: -> isotropic ES             0.027583132180 Eh   ::
         :: -> anisotropic ES           0.003595137384 Eh   ::
         :: -> anisotropic XC           0.029714541479 Eh   ::
         :: -> dispersion              -0.006057788872 Eh   ::
         :: repulsion energy            0.232626667807 Eh   ::
         :: add. restraining            0.000000000000 Eh   ::
         :::::::::::::::::::::::::::::::::::::::::::::::::::::

           -------------------------------------------------
          |                Property Printout                |
           -------------------------------------------------

    * Orbital Energies and Occupations

         #    Occupation            Energy/Eh            Energy/eV
      -------------------------------------------------------------
         1        2.0000           -0.7598129             -20.6756
       ...           ...                  ...                  ...
         6        2.0000           -0.6538144             -17.7912
         7        2.0000           -0.6269019             -17.0589
         8        2.0000           -0.6159386             -16.7605
         9        2.0000           -0.5844080             -15.9026
        10        2.0000           -0.5794944             -15.7688
        11        2.0000           -0.5532222             -15.0539
        12        2.0000           -0.5397770             -14.6881
        13        2.0000           -0.5321679             -14.4810
        14        2.0000           -0.5024633             -13.6727
        15        2.0000           -0.4951171             -13.4728
        16        2.0000           -0.4564011             -12.4193
        17        2.0000           -0.4399987             -11.9730
        18        2.0000           -0.3978664             -10.8265 (HOMO)
        19        0.0000           -0.3695703             -10.0565 (LUMO)
        20                         -0.2929405              -7.9713
        21                         -0.2869131              -7.8073
        22                         -0.1996502              -5.4328
        23                          0.0007294               0.0198
        24                          0.0520836               1.4173
        25                          0.0947442               2.5781
        26                          0.2172020               5.9104
        27                          0.3187563               8.6738
        28                          0.4047703              11.0144
        29                          0.5456863              14.8489
        30                          0.7401048              20.1393
      -------------------------------------------------------------
                  HL-Gap            0.0282961 Eh            0.7700 eV
             Fermi-level           -0.3837183 Eh          -10.4415 eV

   #   Z        covCN         q      C6AA      α(0)
   1   7 N      1.778    -0.272    27.881     7.820
   2   6 C      2.830     0.163    24.474     8.107
   3   7 N      2.312     0.218    17.845     6.271
   4   7 N      0.985    -0.133    23.490     6.970
   5   8 O      1.348    -0.271    18.875     5.846
   6   7 N      1.861     0.035    21.306     6.842
   7   6 C      2.858    -0.002    28.075     8.685
   8   1 H      0.860     0.178     1.228     1.736
   9   1 H      0.926     0.084     1.934     2.175

 Mol. C6AA /au·bohr⁶  :       1295.355918
 Mol. C8AA /au·bohr⁸  :      29613.952819
 Mol. α(0) /au        :         54.451106


Wiberg/Mayer (AO) data.
largest (>0.10) Wiberg bond orders for each atom
          total WBO             WBO to atom ...
     1  N   3.103        C    2 1.785    H    8 0.936    N    4 0.123
     2  C   3.953        N    1 1.785    C    7 1.120    N    3 0.931
     3  N   3.784        N    4 2.304    C    2 0.931    O    5 0.375
     4  N   2.829        N    3 2.304    O    5 0.266    N    1 0.123
     5  O   2.271        N    6 1.316    N    3 0.375    N    4 0.266    C    7 0.178
     6  N   3.226        C    7 1.624    O    5 1.316
     7  C   3.967        N    6 1.624    C    2 1.120    H    9 0.960    O    5 0.178
     8  H   0.968        N    1 0.936
     9  H   0.993        C    7 0.960

molecular dipole:
                 x           y           z       tot (Debye)
 q only:       -0.068       0.865       0.023
   full:       -0.229       0.874      -0.055       2.300
molecular quadrupole (traceless):
                xx          xy          yy          xz          yz          zz
 q only:        4.355       0.842      -7.731       0.995       0.000       3.376
  q+dip:        4.860       0.872     -10.079       0.356      -0.153       5.219
   full:        4.216       0.756     -10.955      -0.922      -0.324       6.739


           -------------------------------------------------
          | TOTAL ENERGY              -20.866971506950 Eh   |
          | GRADIENT NORM               0.008149633977 Eh/α |
          | HOMO-LUMO GAP               0.769976216406 eV   |
           -------------------------------------------------

------------------------------------------------------------------------
 * finished run on 2021/06/02 at 10:00:06.424     
------------------------------------------------------------------------
 total:
 * wall-time:     0 d,  0 h,  0 min,  0.015 sec
 *  cpu-time:     0 d,  0 h,  0 min,  0.014 sec
 * ratio c/w:     0.986 speedup
 SCF:
 * wall-time:     0 d,  0 h,  0 min,  0.007 sec
 *  cpu-time:     0 d,  0 h,  0 min,  0.007 sec
 * ratio c/w:     1.000 speedup

