      -----------------------------------------------------------      
     |                   =====================                   |     
     |                           x T B                           |     
     |                   =====================                   |     
     |                         S. Grimme                         |     
     |          Mulliken Center for Theoretical Chemistry        |     
     |                    University of Bonn                     |     
     |                 Version 6.1.4 (SAW190525)                 |     
      -----------------------------------------------------------      

   This program is distributed in the hope that it will be useful,
   but WITHOUT ANY WARRANTY; without even the implied warranty of
   MERCHANTABILITY or FITNESS FOR A PARTICULAR PURPOSE.
   
   FOR NON-COMMERCIAL, ACADEMIA USE ONLY.
   
   Cite this work as:
   S. Grimme, C. Bannwarth, P. Shushkov, J. Comput. Theory Chem., 2017,
   13, 1989-2009. DOI: 10.1021/acs.jctc.7b00118
   C. Bannwarth, S. Ehlert and S. Grimme., J. Comput. Theory Chem., 2019,
   just accepted. DOI: 10.1021/acs.jctc.8b01176
   
   for sTDA-xTB:
   S. Grimme and C. Bannwarth, J. Chem. Phys., 2016, 145, 054103.
   DOI: 10.1063/1.4959605
   
   in the mass-spec context:
   V. Asgeirsson, C. Bauer and S. Grimme, Chem. Sci., 2017, 8, 4879.
   DOI: 10.1039/c7sc00601b
   
   for metadynamics refer to:
   S. Grimme, J. Chem. Theory Comput. Article ASAP, 2019,
   DOI: 10.1021/acs.jctc.9b00143
   
   with help from (in alphabetical order)
   C. Bannwarth, F. Bohle, G. Brandenburg, E. Caldeweyher, M. Checinski,
   S. Dohm, S. Ehlert, S. Ehrlich, F. März, H. Neugebauer, J. Pisarek,
   P. Pracht, P. Shushkov, and S. Spicher.
   
 * started run on 2021/06/02 at 10:00:07.173     

           -------------------------------------------------
          |                Calculation Setup                |
           -------------------------------------------------

          program call               : /groups/kemi/koerstz/opt/xtb/6.1/bin/xtb 40.xyz --gfn2 --acc 0.2 --chrg 0
          hostname                   : node305
          coordinate file            : 40.xyz
          omp threads                :                     1
          number of atoms            :                     9
          number of electrons        :                    36
          charge                     :                     0
          spin                       :                   0.0
          first test random number   :      0.42695847400067


########################################################################
# WARNING! Please study the warnings concerning your input carefully
#  - XTBPATH is not set, using XTBHOME instead
########################################################################

           ------------------------------------------------- 
          |                 G F N 2 - x T B                 |
          | Geometry, Frequencies, Noncovalent interactions |
          |            JCTC 2018 parametrisation            |
           ------------------------------------------------- 
             k(s)              :                1.8500
             k(p)              :                2.2300
             k(d)              :                2.2300
             k(f)              :                2.0000
             kEN (H0ij)        :               -2.0000
             D4 a1             :                0.5200
             D4 a2             :                5.0000
             D4 s6             :                1.0000
             D4 s8             :                2.7000
             D4 s9             :                5.0000
             alphaj            :                2.0000

  Z AO/shell   Hii/eV     exponent
  1     Wed Apr 25 08:07:45 CEST 2018   EN: 2.200 GM2: 0.406  GM3: 0.0800  RAES: 1.40
     1s    -10.707211    1.230000
  6     Wed Apr 25 08:07:45 CEST 2018   EN: 2.550 GM2: 0.538  GM3: 0.1500  RAES: 3.00
     2s    -13.970922    2.096432
     2p    -10.063292    1.800000
  7     Wed Apr 25 08:07:45 CEST 2018   EN: 3.040 GM2: 0.461  GM3:-0.0640  RAES: 1.90
     2s    -16.686243    2.339881
     2p    -12.523956    2.014332
  8     Wed Apr 25 08:07:45 CEST 2018   EN: 3.440 GM2: 0.452  GM3:-0.0517  RAES: 1.80
     2s    -20.229985    2.439742
     2p    -15.503117    2.137023


            Z     q(EN)     CN     RAES       Cart. coordinates
     1  N   5.0   -0.30    2.99    1.92    -0.42271    -1.44979    -2.40168
     2  C   4.0    0.27    3.06    3.02    -0.84082    -2.02492     0.21745
     3  N   5.0   -0.15    2.01    1.90    -2.77339    -3.13731     1.04540
     4  N   5.0   -0.16    1.01    1.90    -4.59295    -3.64855     2.13982
     5  O   6.0   -0.00    2.00    1.83     2.23729    -0.46565    -2.31195
     6  N   5.0   -0.22    2.06    1.90     3.30048    -1.15924    -0.16143
     7  C   4.0    0.12    3.07    3.02     1.64963    -2.07687     1.34291
     8  H   1.0    0.27    0.99    1.43    -1.51921     0.12214    -3.06117
     9  H   1.0    0.17    0.99    1.43     2.11378    -2.66122     3.24931

           ------------------------------------------------- 
          |        Self-Consistent Charge Iterations        |
           ------------------------------------------------- 
q/qsh data taken from xtbrestart
CAMM data taken from xtbrestart

          ...................................................
          :                      SETUP                      :
          :.................................................:
          :  # basis functions                  30          :
          :  # atomic orbitals                  30          :
          :  # shells                           16          :
          :  # electrons                        36          :
          :  max. iterations                   250          :
          :  Hamiltonian                  GFN2-xTB          :
          :  restarted?                       true          :
          :  GBSA solvation                  false          :
          :  PC potential                    false          :
          :  electronic temp.          300.0000000     K    :
          :  accuracy                    0.2000000          :
          :  -> integral cutoff          0.3198970E+02      :
          :  -> integral neglect         0.2000000E-08      :
          :  -> SCF convergence          0.2000000E-06 Eh   :
          :  -> wf. convergence          0.2000000E-04 e    :
          :  Broyden damping             0.4000000          :
          ...................................................

 iter      E             dE          RMSdq      gap      omega  full diag
   1    -20.9043834 -0.209044E+02  0.626E+00    0.46       0.0  T
   2    -20.9666525 -0.622691E-01  0.499E+00    2.35       1.0  T
   3    -21.0642581 -0.976056E-01  0.282E+00    1.21       1.0  T
   4    -21.0773088 -0.130507E-01  0.118E+00    1.27       1.0  T
   5    -21.0811732 -0.386449E-02  0.458E-01    1.14       1.0  T
   6    -21.0824576 -0.128439E-02  0.173E-01    1.20       1.0  T
   7    -21.0824763 -0.186124E-04  0.981E-02    1.20       1.0  T
   8    -21.0825040 -0.277008E-04  0.280E-02    1.20       1.2  T
   9    -21.0825061 -0.218083E-05  0.127E-02    1.19       2.6  T
  10    -21.0825061 -0.167179E-07  0.557E-03    1.19       6.0  T
  11    -21.0825063 -0.111219E-06  0.154E-03    1.19      21.7  T
  12    -21.0825063 -0.258002E-08  0.606E-04    1.19      55.0  T
  13    -21.0825063 -0.425498E-09  0.214E-04    1.19     155.8  T
  14    -21.0825063 -0.109925E-09  0.941E-05    1.19     354.2  T
  15    -21.0825063 -0.422951E-10  0.155E-05    1.19    2147.1  T

   *** convergence criteria satisfied after 15 iterations ***

         #    Occupation            Energy/Eh            Energy/eV
      -------------------------------------------------------------
         1        2.0000           -0.7732761             -21.0419
       ...           ...                  ...                  ...
        12        2.0000           -0.5346720             -14.5492
        13        2.0000           -0.5183107             -14.1040
        14        2.0000           -0.4892071             -13.3120
        15        2.0000           -0.4809142             -13.0863
        16        2.0000           -0.4714009             -12.8275
        17        2.0000           -0.4447107             -12.1012
        18        2.0000           -0.3664872              -9.9726 (HOMO)
        19                         -0.3225830              -8.7779 (LUMO)
        20                         -0.2854398              -7.7672
        21                         -0.1983431              -5.3972
        22                         -0.1716880              -4.6719
        23                         -0.0203116              -0.5527
       ...                                ...                  ...
        30                          0.9378416              25.5200
      -------------------------------------------------------------
                  HL-Gap            0.0439042 Eh            1.1947 eV
             Fermi-level           -0.3445351 Eh           -9.3753 eV

 SCC (total)                   0 d,  0 h,  0 min,  0.008 sec
 SCC setup                      ...        0 min,  0.000 sec (  1.578%)
 Dispersion                     ...        0 min,  0.000 sec (  0.828%)
 integral evaluation            ...        0 min,  0.001 sec ( 13.339%)
 zeroth order Hamiltonian       ...        0 min,  0.000 sec (  0.389%)
 iterations                     ...        0 min,  0.004 sec ( 54.984%)
 molecular gradient             ...        0 min,  0.002 sec ( 24.161%)
 printout                       ...        0 min,  0.000 sec (  4.326%)

         :::::::::::::::::::::::::::::::::::::::::::::::::::::
         ::                     SUMMARY                     ::
         :::::::::::::::::::::::::::::::::::::::::::::::::::::
         :: total energy              -20.869518612225 Eh   ::
         :: gradient norm               0.082046751467 Eh/α ::
         :: HOMO-LUMO gap               1.194693884027 eV   ::
         ::.................................................::
         :: SCC energy                -21.082506263757 Eh   ::
         :: -> isotropic ES             0.014061054555 Eh   ::
         :: -> anisotropic ES           0.003966528800 Eh   ::
         :: -> anisotropic XC           0.030656430026 Eh   ::
         :: -> dispersion              -0.005838311736 Eh   ::
         :: repulsion energy            0.212984473544 Eh   ::
         :: add. restraining            0.000000000000 Eh   ::
         :::::::::::::::::::::::::::::::::::::::::::::::::::::

           -------------------------------------------------
          |                Property Printout                |
           -------------------------------------------------

    * Orbital Energies and Occupations

         #    Occupation            Energy/Eh            Energy/eV
      -------------------------------------------------------------
         1        2.0000           -0.7732761             -21.0419
       ...           ...                  ...                  ...
         6        2.0000           -0.6486627             -17.6510
         7        2.0000           -0.6151684             -16.7396
         8        2.0000           -0.6082074             -16.5502
         9        2.0000           -0.5843620             -15.9013
        10        2.0000           -0.5782376             -15.7346
        11        2.0000           -0.5751848             -15.6516
        12        2.0000           -0.5346720             -14.5492
        13        2.0000           -0.5183107             -14.1040
        14        2.0000           -0.4892071             -13.3120
        15        2.0000           -0.4809142             -13.0863
        16        2.0000           -0.4714009             -12.8275
        17        2.0000           -0.4447107             -12.1012
        18        2.0000           -0.3664872              -9.9726 (HOMO)
        19                         -0.3225830              -8.7779 (LUMO)
        20                         -0.2854398              -7.7672
        21                         -0.1983431              -5.3972
        22                         -0.1716880              -4.6719
        23                         -0.0203116              -0.5527
        24                          0.0160016               0.4354
        25                          0.0782507               2.1293
        26                          0.1563464               4.2544
        27                          0.2021239               5.5001
        28                          0.3586302               9.7588
        29                          0.4765270              12.9670
        30                          0.9378416              25.5200
      -------------------------------------------------------------
                  HL-Gap            0.0439042 Eh            1.1947 eV
             Fermi-level           -0.3445351 Eh           -9.3753 eV

   #   Z        covCN         q      C6AA      α(0)
   1   7 N      2.685    -0.122    23.666     7.225
   2   6 C      2.857     0.055    26.758     8.478
   3   7 N      1.899     0.143    19.434     6.536
   4   7 N      0.988    -0.167    24.203     7.074
   5   8 O      1.846    -0.136    16.337     5.458
   6   7 N      1.887    -0.050    22.940     7.100
   7   6 C      2.886     0.041    27.084     8.532
   8   1 H      0.854     0.172     1.260     1.758
   9   1 H      0.925     0.065     2.143     2.289

 Mol. C6AA /au·bohr⁶  :       1290.554494
 Mol. C8AA /au·bohr⁸  :      29521.654217
 Mol. α(0) /au        :         54.451561


Wiberg/Mayer (AO) data.
largest (>0.10) Wiberg bond orders for each atom
          total WBO             WBO to atom ...
     1  N   3.122        C    2 1.013    H    8 0.935    O    5 0.907    N    4 0.102
     2  C   3.891        N    3 1.412    C    7 1.096    N    1 1.013    N    4 0.312
     3  N   3.748        N    4 2.175    C    2 1.412
     4  N   2.824        N    3 2.175    C    2 0.312    N    6 0.118    N    1 0.102
     5  O   2.240        N    6 1.120    N    1 0.907    C    7 0.113
     6  N   3.127        C    7 1.710    O    5 1.120    N    4 0.118
     7  C   3.974        N    6 1.710    C    2 1.096    H    9 0.962    O    5 0.113
     8  H   0.970        N    1 0.935
     9  H   0.996        C    7 0.962

molecular dipole:
                 x           y           z       tot (Debye)
 q only:       -0.151       0.113       0.158
   full:       -0.282       0.322       0.226       1.230
molecular quadrupole (traceless):
                xx          xy          yy          xz          yz          zz
 q only:       -2.851      -2.611       0.944       4.742      -0.765       1.907
  q+dip:       -5.813      -4.959       2.768       6.833      -1.344       3.044
   full:       -6.287      -5.262       2.947       7.553      -1.205       3.340


           -------------------------------------------------
          | TOTAL ENERGY              -20.869518612225 Eh   |
          | GRADIENT NORM               0.082046751467 Eh/α |
          | HOMO-LUMO GAP               1.194693884027 eV   |
           -------------------------------------------------

------------------------------------------------------------------------
 * finished run on 2021/06/02 at 10:00:07.189     
------------------------------------------------------------------------
 total:
 * wall-time:     0 d,  0 h,  0 min,  0.016 sec
 *  cpu-time:     0 d,  0 h,  0 min,  0.015 sec
 * ratio c/w:     0.984 speedup
 SCF:
 * wall-time:     0 d,  0 h,  0 min,  0.008 sec
 *  cpu-time:     0 d,  0 h,  0 min,  0.008 sec
 * ratio c/w:     0.995 speedup

