      -----------------------------------------------------------      
     |                   =====================                   |     
     |                           x T B                           |     
     |                   =====================                   |     
     |                         S. Grimme                         |     
     |          Mulliken Center for Theoretical Chemistry        |     
     |                    University of Bonn                     |     
     |                 Version 6.1.4 (SAW190525)                 |     
      -----------------------------------------------------------      

   This program is distributed in the hope that it will be useful,
   but WITHOUT ANY WARRANTY; without even the implied warranty of
   MERCHANTABILITY or FITNESS FOR A PARTICULAR PURPOSE.
   
   FOR NON-COMMERCIAL, ACADEMIA USE ONLY.
   
   Cite this work as:
   S. Grimme, C. Bannwarth, P. Shushkov, J. Comput. Theory Chem., 2017,
   13, 1989-2009. DOI: 10.1021/acs.jctc.7b00118
   C. Bannwarth, S. Ehlert and S. Grimme., J. Comput. Theory Chem., 2019,
   just accepted. DOI: 10.1021/acs.jctc.8b01176
   
   for sTDA-xTB:
   S. Grimme and C. Bannwarth, J. Chem. Phys., 2016, 145, 054103.
   DOI: 10.1063/1.4959605
   
   in the mass-spec context:
   V. Asgeirsson, C. Bauer and S. Grimme, Chem. Sci., 2017, 8, 4879.
   DOI: 10.1039/c7sc00601b
   
   for metadynamics refer to:
   S. Grimme, J. Chem. Theory Comput. Article ASAP, 2019,
   DOI: 10.1021/acs.jctc.9b00143
   
   with help from (in alphabetical order)
   C. Bannwarth, F. Bohle, G. Brandenburg, E. Caldeweyher, M. Checinski,
   S. Dohm, S. Ehlert, S. Ehrlich, F. März, H. Neugebauer, J. Pisarek,
   P. Pracht, P. Shushkov, and S. Spicher.
   
 * started run on 2021/06/02 at 10:00:06.608     

           -------------------------------------------------
          |                Calculation Setup                |
           -------------------------------------------------

          program call               : /groups/kemi/koerstz/opt/xtb/6.1/bin/xtb 41.xyz --gfn2 --acc 0.2 --chrg 0
          hostname                   : node305
          coordinate file            : 41.xyz
          omp threads                :                     1
          number of atoms            :                     9
          number of electrons        :                    36
          charge                     :                     0
          spin                       :                   0.0
          first test random number   :      0.75277533008992


########################################################################
# WARNING! Please study the warnings concerning your input carefully
#  - XTBPATH is not set, using XTBHOME instead
########################################################################

           ------------------------------------------------- 
          |                 G F N 2 - x T B                 |
          | Geometry, Frequencies, Noncovalent interactions |
          |            JCTC 2018 parametrisation            |
           ------------------------------------------------- 
             k(s)              :                1.8500
             k(p)              :                2.2300
             k(d)              :                2.2300
             k(f)              :                2.0000
             kEN (H0ij)        :               -2.0000
             D4 a1             :                0.5200
             D4 a2             :                5.0000
             D4 s6             :                1.0000
             D4 s8             :                2.7000
             D4 s9             :                5.0000
             alphaj            :                2.0000

  Z AO/shell   Hii/eV     exponent
  1     Wed Apr 25 08:07:45 CEST 2018   EN: 2.200 GM2: 0.406  GM3: 0.0800  RAES: 1.40
     1s    -10.707211    1.230000
  6     Wed Apr 25 08:07:45 CEST 2018   EN: 2.550 GM2: 0.538  GM3: 0.1500  RAES: 3.00
     2s    -13.970922    2.096432
     2p    -10.063292    1.800000
  7     Wed Apr 25 08:07:45 CEST 2018   EN: 3.040 GM2: 0.461  GM3:-0.0640  RAES: 1.90
     2s    -16.686243    2.339881
     2p    -12.523956    2.014332
  8     Wed Apr 25 08:07:45 CEST 2018   EN: 3.440 GM2: 0.452  GM3:-0.0517  RAES: 1.80
     2s    -20.229985    2.439742
     2p    -15.503117    2.137023


            Z     q(EN)     CN     RAES       Cart. coordinates
     1  N   5.0   -0.31    3.03    1.93    -0.41508    -1.35679    -2.34823
     2  C   4.0    0.27    3.07    3.02    -0.82036    -2.07470     0.21539
     3  N   5.0   -0.15    2.01    1.90    -2.81279    -3.12168     1.03261
     4  N   5.0   -0.16    1.01    1.90    -4.61895    -3.65932     2.08621
     5  O   6.0    0.01    2.02    1.83     2.20488    -0.57908    -2.38369
     6  N   5.0   -0.22    2.06    1.90     3.29681    -1.16361    -0.15503
     7  C   4.0    0.12    3.07    3.02     1.65468    -2.05695     1.36046
     8  H   1.0    0.28    1.00    1.43    -1.46671     0.13889    -2.99636
     9  H   1.0    0.17    1.00    1.43     2.12963    -2.62815     3.24729

           ------------------------------------------------- 
          |        Self-Consistent Charge Iterations        |
           ------------------------------------------------- 
q/qsh data taken from xtbrestart
CAMM data taken from xtbrestart

          ...................................................
          :                      SETUP                      :
          :.................................................:
          :  # basis functions                  30          :
          :  # atomic orbitals                  30          :
          :  # shells                           16          :
          :  # electrons                        36          :
          :  max. iterations                   250          :
          :  Hamiltonian                  GFN2-xTB          :
          :  restarted?                       true          :
          :  GBSA solvation                  false          :
          :  PC potential                    false          :
          :  electronic temp.          300.0000000     K    :
          :  accuracy                    0.2000000          :
          :  -> integral cutoff          0.3198970E+02      :
          :  -> integral neglect         0.2000000E-08      :
          :  -> SCF convergence          0.2000000E-06 Eh   :
          :  -> wf. convergence          0.2000000E-04 e    :
          :  Broyden damping             0.4000000          :
          ...................................................

 iter      E             dE          RMSdq      gap      omega  full diag
   1    -21.0999174 -0.210999E+02  0.223E-01    1.08       0.0  T
   2    -21.0998230  0.943685E-04  0.190E-01    1.15       1.0  T
   3    -21.1000408 -0.217800E-03  0.100E-01    1.10       1.0  T
   4    -21.1000791 -0.382646E-04  0.190E-02    1.11       1.8  T
   5    -21.1000801 -0.107573E-05  0.719E-03    1.11       4.6  T
   6    -21.1000802 -0.111618E-06  0.327E-03    1.11      10.2  T
   7    -21.1000803 -0.362097E-07  0.965E-04    1.11      34.6  T
   8    -21.1000803 -0.100610E-08  0.351E-04    1.11      94.9  T
   9    -21.1000803 -0.116945E-09  0.103E-04    1.11     324.9  T
  10    -21.1000803 -0.234692E-10  0.496E-05    1.11     672.6  T

   *** convergence criteria satisfied after 10 iterations ***

         #    Occupation            Energy/Eh            Energy/eV
      -------------------------------------------------------------
         1        2.0000           -0.7725798             -21.0230
       ...           ...                  ...                  ...
        12        2.0000           -0.5349127             -14.5557
        13        2.0000           -0.5204161             -14.1612
        14        2.0000           -0.4898979             -13.3308
        15        2.0000           -0.4813790             -13.0990
        16        2.0000           -0.4679977             -12.7349
        17        2.0000           -0.4428075             -12.0494
        18        2.0000           -0.3601494              -9.8002 (HOMO)
        19                         -0.3192412              -8.6870 (LUMO)
        20                         -0.2818976              -7.6708
        21                         -0.1874972              -5.1021
        22                         -0.1316005              -3.5810
        23                         -0.0170589              -0.4642
       ...                                ...                  ...
        30                          0.9729928              26.4765
      -------------------------------------------------------------
                  HL-Gap            0.0409082 Eh            1.1132 eV
             Fermi-level           -0.3396953 Eh           -9.2436 eV

 SCC (total)                   0 d,  0 h,  0 min,  0.007 sec
 SCC setup                      ...        0 min,  0.000 sec (  1.897%)
 Dispersion                     ...        0 min,  0.000 sec (  0.822%)
 integral evaluation            ...        0 min,  0.001 sec ( 16.121%)
 zeroth order Hamiltonian       ...        0 min,  0.000 sec (  0.456%)
 iterations                     ...        0 min,  0.003 sec ( 48.125%)
 molecular gradient             ...        0 min,  0.002 sec ( 29.054%)
 printout                       ...        0 min,  0.000 sec (  3.008%)

         :::::::::::::::::::::::::::::::::::::::::::::::::::::
         ::                     SUMMARY                     ::
         :::::::::::::::::::::::::::::::::::::::::::::::::::::
         :: total energy              -20.874733078587 Eh   ::
         :: gradient norm               0.015171277313 Eh/α ::
         :: HOMO-LUMO gap               1.113168679525 eV   ::
         ::.................................................::
         :: SCC energy                -21.100080277834 Eh   ::
         :: -> isotropic ES             0.014228676142 Eh   ::
         :: -> anisotropic ES           0.004187488508 Eh   ::
         :: -> anisotropic XC           0.030806969333 Eh   ::
         :: -> dispersion              -0.005838799437 Eh   ::
         :: repulsion energy            0.225344052292 Eh   ::
         :: add. restraining            0.000000000000 Eh   ::
         :::::::::::::::::::::::::::::::::::::::::::::::::::::

           -------------------------------------------------
          |                Property Printout                |
           -------------------------------------------------

    * Orbital Energies and Occupations

         #    Occupation            Energy/Eh            Energy/eV
      -------------------------------------------------------------
         1        2.0000           -0.7725798             -21.0230
       ...           ...                  ...                  ...
         6        2.0000           -0.6496531             -17.6780
         7        2.0000           -0.6174995             -16.8030
         8        2.0000           -0.6089197             -16.5695
         9        2.0000           -0.5839307             -15.8896
        10        2.0000           -0.5818651             -15.8334
        11        2.0000           -0.5757523             -15.6670
        12        2.0000           -0.5349127             -14.5557
        13        2.0000           -0.5204161             -14.1612
        14        2.0000           -0.4898979             -13.3308
        15        2.0000           -0.4813790             -13.0990
        16        2.0000           -0.4679977             -12.7349
        17        2.0000           -0.4428075             -12.0494
        18        2.0000           -0.3601494              -9.8002 (HOMO)
        19                         -0.3192412              -8.6870 (LUMO)
        20                         -0.2818976              -7.6708
        21                         -0.1874972              -5.1021
        22                         -0.1316005              -3.5810
        23                         -0.0170589              -0.4642
        24                          0.0166129               0.4521
        25                          0.1093250               2.9749
        26                          0.1698933               4.6230
        27                          0.2127103               5.7881
        28                          0.3691638              10.0455
        29                          0.4948988              13.4669
        30                          0.9729928              26.4765
      -------------------------------------------------------------
                  HL-Gap            0.0409082 Eh            1.1132 eV
             Fermi-level           -0.3396953 Eh           -9.2436 eV

   #   Z        covCN         q      C6AA      α(0)
   1   7 N      2.720    -0.112    23.454     7.193
   2   6 C      2.862     0.051    26.861     8.495
   3   7 N      1.898     0.146    19.388     6.528
   4   7 N      0.988    -0.164    24.145     7.065
   5   8 O      1.861    -0.136    16.328     5.457
   6   7 N      1.893    -0.067    23.268     7.151
   7   6 C      2.884     0.045    26.991     8.517
   8   1 H      0.859     0.172     1.262     1.760
   9   1 H      0.926     0.066     2.129     2.282

 Mol. C6AA /au·bohr⁶  :       1290.373881
 Mol. C8AA /au·bohr⁸  :      29519.463080
 Mol. α(0) /au        :         54.448216


Wiberg/Mayer (AO) data.
largest (>0.10) Wiberg bond orders for each atom
          total WBO             WBO to atom ...
     1  N   3.144        C    2 1.015    O    5 0.943    H    8 0.935    N    4 0.101
     2  C   3.894        N    3 1.397    C    7 1.108    N    1 1.015    N    4 0.308
     3  N   3.750        N    4 2.188    C    2 1.397
     4  N   2.828        N    3 2.188    C    2 0.308    N    6 0.117    N    1 0.101
     5  O   2.229        N    6 1.082    N    1 0.943    C    7 0.102
     6  N   3.088        C    7 1.719    O    5 1.082    N    4 0.117
     7  C   3.977        N    6 1.719    C    2 1.108    H    9 0.962    O    5 0.102
     8  H   0.970        N    1 0.935
     9  H   0.996        C    7 0.962

molecular dipole:
                 x           y           z       tot (Debye)
 q only:       -0.201       0.108       0.176
   full:       -0.352       0.322       0.248       1.366
molecular quadrupole (traceless):
                xx          xy          yy          xz          yz          zz
 q only:       -2.988      -2.407       1.021       4.652      -0.834       1.967
  q+dip:       -6.278      -4.677       3.002       6.803      -1.407       3.277
   full:       -6.752      -5.047       3.156       7.494      -1.300       3.596


           -------------------------------------------------
          | TOTAL ENERGY              -20.874733078587 Eh   |
          | GRADIENT NORM               0.015171277313 Eh/α |
          | HOMO-LUMO GAP               1.113168679525 eV   |
           -------------------------------------------------

------------------------------------------------------------------------
 * finished run on 2021/06/02 at 10:00:06.622     
------------------------------------------------------------------------
 total:
 * wall-time:     0 d,  0 h,  0 min,  0.014 sec
 *  cpu-time:     0 d,  0 h,  0 min,  0.014 sec
 * ratio c/w:     0.985 speedup
 SCF:
 * wall-time:     0 d,  0 h,  0 min,  0.007 sec
 *  cpu-time:     0 d,  0 h,  0 min,  0.007 sec
 * ratio c/w:     1.000 speedup

