      -----------------------------------------------------------      
     |                   =====================                   |     
     |                           x T B                           |     
     |                   =====================                   |     
     |                         S. Grimme                         |     
     |          Mulliken Center for Theoretical Chemistry        |     
     |                    University of Bonn                     |     
     |                 Version 6.1.4 (SAW190525)                 |     
      -----------------------------------------------------------      

   This program is distributed in the hope that it will be useful,
   but WITHOUT ANY WARRANTY; without even the implied warranty of
   MERCHANTABILITY or FITNESS FOR A PARTICULAR PURPOSE.
   
   FOR NON-COMMERCIAL, ACADEMIA USE ONLY.
   
   Cite this work as:
   S. Grimme, C. Bannwarth, P. Shushkov, J. Comput. Theory Chem., 2017,
   13, 1989-2009. DOI: 10.1021/acs.jctc.7b00118
   C. Bannwarth, S. Ehlert and S. Grimme., J. Comput. Theory Chem., 2019,
   just accepted. DOI: 10.1021/acs.jctc.8b01176
   
   for sTDA-xTB:
   S. Grimme and C. Bannwarth, J. Chem. Phys., 2016, 145, 054103.
   DOI: 10.1063/1.4959605
   
   in the mass-spec context:
   V. Asgeirsson, C. Bauer and S. Grimme, Chem. Sci., 2017, 8, 4879.
   DOI: 10.1039/c7sc00601b
   
   for metadynamics refer to:
   S. Grimme, J. Chem. Theory Comput. Article ASAP, 2019,
   DOI: 10.1021/acs.jctc.9b00143
   
   with help from (in alphabetical order)
   C. Bannwarth, F. Bohle, G. Brandenburg, E. Caldeweyher, M. Checinski,
   S. Dohm, S. Ehlert, S. Ehrlich, F. März, H. Neugebauer, J. Pisarek,
   P. Pracht, P. Shushkov, and S. Spicher.
   
 * started run on 2021/06/02 at 10:00:06.369     

           -------------------------------------------------
          |                Calculation Setup                |
           -------------------------------------------------

          program call               : /groups/kemi/koerstz/opt/xtb/6.1/bin/xtb 42.xyz --gfn2 --acc 0.2 --chrg 0
          hostname                   : node305
          coordinate file            : 42.xyz
          omp threads                :                     1
          number of atoms            :                     9
          number of electrons        :                    36
          charge                     :                     0
          spin                       :                   0.0
          first test random number   :      0.03415139340929


########################################################################
# WARNING! Please study the warnings concerning your input carefully
#  - XTBPATH is not set, using XTBHOME instead
########################################################################

           ------------------------------------------------- 
          |                 G F N 2 - x T B                 |
          | Geometry, Frequencies, Noncovalent interactions |
          |            JCTC 2018 parametrisation            |
           ------------------------------------------------- 
             k(s)              :                1.8500
             k(p)              :                2.2300
             k(d)              :                2.2300
             k(f)              :                2.0000
             kEN (H0ij)        :               -2.0000
             D4 a1             :                0.5200
             D4 a2             :                5.0000
             D4 s6             :                1.0000
             D4 s8             :                2.7000
             D4 s9             :                5.0000
             alphaj            :                2.0000

  Z AO/shell   Hii/eV     exponent
  1     Wed Apr 25 08:07:45 CEST 2018   EN: 2.200 GM2: 0.406  GM3: 0.0800  RAES: 1.40
     1s    -10.707211    1.230000
  6     Wed Apr 25 08:07:45 CEST 2018   EN: 2.550 GM2: 0.538  GM3: 0.1500  RAES: 3.00
     2s    -13.970922    2.096432
     2p    -10.063292    1.800000
  7     Wed Apr 25 08:07:45 CEST 2018   EN: 3.040 GM2: 0.461  GM3:-0.0640  RAES: 1.90
     2s    -16.686243    2.339881
     2p    -12.523956    2.014332
  8     Wed Apr 25 08:07:45 CEST 2018   EN: 3.440 GM2: 0.452  GM3:-0.0517  RAES: 1.80
     2s    -20.229985    2.439742
     2p    -15.503117    2.137023


            Z     q(EN)     CN     RAES       Cart. coordinates
     1  N   5.0   -0.31    3.02    1.93    -0.40953    -1.34940    -2.34635
     2  C   4.0    0.27    3.06    3.02    -0.81999    -2.06386     0.21620
     3  N   5.0   -0.15    2.01    1.90    -2.84097    -3.08704     1.02670
     4  N   5.0   -0.16    1.01    1.90    -4.60584    -3.68127     2.11926
     5  O   6.0    0.01    2.02    1.83     2.21917    -0.59864    -2.38671
     6  N   5.0   -0.22    2.06    1.90     3.30640    -1.18077    -0.16266
     7  C   4.0    0.12    3.07    3.02     1.65309    -2.06227     1.36634
     8  H   1.0    0.28    1.00    1.43    -1.45877     0.14155    -3.02574
     9  H   1.0    0.17    1.00    1.43     2.10855    -2.61971     3.25160

           ------------------------------------------------- 
          |        Self-Consistent Charge Iterations        |
           ------------------------------------------------- 
q/qsh data taken from xtbrestart
CAMM data taken from xtbrestart

          ...................................................
          :                      SETUP                      :
          :.................................................:
          :  # basis functions                  30          :
          :  # atomic orbitals                  30          :
          :  # shells                           16          :
          :  # electrons                        36          :
          :  max. iterations                   250          :
          :  Hamiltonian                  GFN2-xTB          :
          :  restarted?                       true          :
          :  GBSA solvation                  false          :
          :  PC potential                    false          :
          :  electronic temp.          300.0000000     K    :
          :  accuracy                    0.2000000          :
          :  -> integral cutoff          0.3198970E+02      :
          :  -> integral neglect         0.2000000E-08      :
          :  -> SCF convergence          0.2000000E-06 Eh   :
          :  -> wf. convergence          0.2000000E-04 e    :
          :  Broyden damping             0.4000000          :
          ...................................................

 iter      E             dE          RMSdq      gap      omega  full diag
   1    -20.5827672 -0.205828E+02  0.763E+00    0.45       0.0  T
   2    -20.8211379 -0.238371E+00  0.658E+00    2.56       1.0  T
   3    -21.0801577 -0.259020E+00  0.355E+00    1.77       1.0  T
   4    -21.0896587 -0.950101E-02  0.216E+00    1.53       1.0  T
   5    -21.0914723 -0.181362E-02  0.834E-01    0.96       1.0  T
   6    -21.0964805 -0.500821E-02  0.267E-01    1.09       1.0  T
   7    -21.0969464 -0.465859E-03  0.117E-01    1.06       1.0  T
   8    -21.0969617 -0.153039E-04  0.550E-02    1.08       1.0  T
   9    -21.0969694 -0.771108E-05  0.196E-02    1.07       1.7  T
  10    -21.0969706 -0.114326E-05  0.103E-02    1.07       3.2  T
  11    -21.0969711 -0.531169E-06  0.496E-03    1.07       6.7  T
  12    -21.0969712 -0.675669E-07  0.126E-03    1.07      26.5  T
  13    -21.0969712 -0.466247E-08  0.650E-04    1.07      51.3  T
  14    -21.0969712 -0.168097E-08  0.136E-04    1.07     244.4  T
  15    -21.0969712 -0.933404E-10  0.226E-05    1.07    1476.8  T

   *** convergence criteria satisfied after 15 iterations ***

         #    Occupation            Energy/Eh            Energy/eV
      -------------------------------------------------------------
         1        2.0000           -0.7725349             -21.0217
       ...           ...                  ...                  ...
        12        2.0000           -0.5350427             -14.5593
        13        2.0000           -0.5203731             -14.1601
        14        2.0000           -0.4898315             -13.3290
        15        2.0000           -0.4798724             -13.0580
        16        2.0000           -0.4682835             -12.7426
        17        2.0000           -0.4426237             -12.0444
        18        2.0000           -0.3589704              -9.7681 (HOMO)
        19                         -0.3196319              -8.6976 (LUMO)
        20                         -0.2821165              -7.6768
        21                         -0.1879306              -5.1139
        22                         -0.1327651              -3.6127
        23                         -0.0137555              -0.3743
       ...                                ...                  ...
        30                          0.9641363              26.2355
      -------------------------------------------------------------
                  HL-Gap            0.0393384 Eh            1.0705 eV
             Fermi-level           -0.3393012 Eh           -9.2329 eV

 SCC (total)                   0 d,  0 h,  0 min,  0.008 sec
 SCC setup                      ...        0 min,  0.000 sec (  1.625%)
 Dispersion                     ...        0 min,  0.000 sec (  0.839%)
 integral evaluation            ...        0 min,  0.001 sec ( 13.854%)
 zeroth order Hamiltonian       ...        0 min,  0.000 sec (  0.390%)
 iterations                     ...        0 min,  0.004 sec ( 55.099%)
 molecular gradient             ...        0 min,  0.002 sec ( 25.482%)
 printout                       ...        0 min,  0.000 sec (  2.264%)

         :::::::::::::::::::::::::::::::::::::::::::::::::::::
         ::                     SUMMARY                     ::
         :::::::::::::::::::::::::::::::::::::::::::::::::::::
         :: total energy              -20.874711487029 Eh   ::
         :: gradient norm               0.019268826204 Eh/α ::
         :: HOMO-LUMO gap               1.070452948101 eV   ::
         ::.................................................::
         :: SCC energy                -21.096971166428 Eh   ::
         :: -> isotropic ES             0.014002433011 Eh   ::
         :: -> anisotropic ES           0.004154082548 Eh   ::
         :: -> anisotropic XC           0.030937002981 Eh   ::
         :: -> dispersion              -0.005834209327 Eh   ::
         :: repulsion energy            0.222256510289 Eh   ::
         :: add. restraining            0.000000000000 Eh   ::
         :::::::::::::::::::::::::::::::::::::::::::::::::::::

           -------------------------------------------------
          |                Property Printout                |
           -------------------------------------------------

    * Orbital Energies and Occupations

         #    Occupation            Energy/Eh            Energy/eV
      -------------------------------------------------------------
         1        2.0000           -0.7725349             -21.0217
       ...           ...                  ...                  ...
         6        2.0000           -0.6487636             -17.6538
         7        2.0000           -0.6168140             -16.7844
         8        2.0000           -0.6080855             -16.5468
         9        2.0000           -0.5837615             -15.8850
        10        2.0000           -0.5813556             -15.8195
        11        2.0000           -0.5756819             -15.6651
        12        2.0000           -0.5350427             -14.5593
        13        2.0000           -0.5203731             -14.1601
        14        2.0000           -0.4898315             -13.3290
        15        2.0000           -0.4798724             -13.0580
        16        2.0000           -0.4682835             -12.7426
        17        2.0000           -0.4426237             -12.0444
        18        2.0000           -0.3589704              -9.7681 (HOMO)
        19                         -0.3196319              -8.6976 (LUMO)
        20                         -0.2821165              -7.6768
        21                         -0.1879306              -5.1139
        22                         -0.1327651              -3.6127
        23                         -0.0137555              -0.3743
        24                          0.0149713               0.4074
        25                          0.1054208               2.8686
        26                          0.1724425               4.6924
        27                          0.2115123               5.7555
        28                          0.3626602               9.8685
        29                          0.4865383              13.2394
        30                          0.9641363              26.2355
      -------------------------------------------------------------
                  HL-Gap            0.0393384 Eh            1.0705 eV
             Fermi-level           -0.3393012 Eh           -9.2329 eV

   #   Z        covCN         q      C6AA      α(0)
   1   7 N      2.720    -0.112    23.449     7.192
   2   6 C      2.860     0.050    26.862     8.495
   3   7 N      1.897     0.144    19.416     6.533
   4   7 N      0.987    -0.162    24.108     7.060
   5   8 O      1.860    -0.133    16.296     5.452
   6   7 N      1.893    -0.067    23.276     7.152
   7   6 C      2.882     0.044    27.021     8.522
   8   1 H      0.859     0.171     1.268     1.764
   9   1 H      0.927     0.066     2.127     2.281

 Mol. C6AA /au·bohr⁶  :       1290.433858
 Mol. C8AA /au·bohr⁸  :      29520.902002
 Mol. α(0) /au        :         54.450851


Wiberg/Mayer (AO) data.
largest (>0.10) Wiberg bond orders for each atom
          total WBO             WBO to atom ...
     1  N   3.147        C    2 1.017    O    5 0.942    H    8 0.935    N    4 0.100
     2  C   3.893        N    3 1.391    C    7 1.113    N    1 1.017    N    4 0.308
     3  N   3.749        N    4 2.191    C    2 1.391
     4  N   2.831        N    3 2.191    C    2 0.308    N    6 0.118    N    1 0.100
     5  O   2.234        N    6 1.086    N    1 0.942    C    7 0.103
     6  N   3.087        C    7 1.712    O    5 1.086    N    4 0.118
     7  C   3.977        N    6 1.712    C    2 1.113    H    9 0.963    O    5 0.103
     8  H   0.971        N    1 0.935
     9  H   0.996        C    7 0.963

molecular dipole:
                 x           y           z       tot (Debye)
 q only:       -0.211       0.121       0.165
   full:       -0.368       0.343       0.233       1.409
molecular quadrupole (traceless):
                xx          xy          yy          xz          yz          zz
 q only:       -2.918      -2.368       0.928       4.646      -0.796       1.990
  q+dip:       -6.176      -4.593       2.842       6.800      -1.365       3.334
   full:       -6.631      -4.980       3.000       7.503      -1.247       3.631


           -------------------------------------------------
          | TOTAL ENERGY              -20.874711487029 Eh   |
          | GRADIENT NORM               0.019268826204 Eh/α |
          | HOMO-LUMO GAP               1.070452948101 eV   |
           -------------------------------------------------

------------------------------------------------------------------------
 * finished run on 2021/06/02 at 10:00:06.384     
------------------------------------------------------------------------
 total:
 * wall-time:     0 d,  0 h,  0 min,  0.015 sec
 *  cpu-time:     0 d,  0 h,  0 min,  0.015 sec
 * ratio c/w:     0.986 speedup
 SCF:
 * wall-time:     0 d,  0 h,  0 min,  0.008 sec
 *  cpu-time:     0 d,  0 h,  0 min,  0.008 sec
 * ratio c/w:     1.000 speedup

