      -----------------------------------------------------------      
     |                   =====================                   |     
     |                           x T B                           |     
     |                   =====================                   |     
     |                         S. Grimme                         |     
     |          Mulliken Center for Theoretical Chemistry        |     
     |                    University of Bonn                     |     
     |                 Version 6.1.4 (SAW190525)                 |     
      -----------------------------------------------------------      

   This program is distributed in the hope that it will be useful,
   but WITHOUT ANY WARRANTY; without even the implied warranty of
   MERCHANTABILITY or FITNESS FOR A PARTICULAR PURPOSE.
   
   FOR NON-COMMERCIAL, ACADEMIA USE ONLY.
   
   Cite this work as:
   S. Grimme, C. Bannwarth, P. Shushkov, J. Comput. Theory Chem., 2017,
   13, 1989-2009. DOI: 10.1021/acs.jctc.7b00118
   C. Bannwarth, S. Ehlert and S. Grimme., J. Comput. Theory Chem., 2019,
   just accepted. DOI: 10.1021/acs.jctc.8b01176
   
   for sTDA-xTB:
   S. Grimme and C. Bannwarth, J. Chem. Phys., 2016, 145, 054103.
   DOI: 10.1063/1.4959605
   
   in the mass-spec context:
   V. Asgeirsson, C. Bauer and S. Grimme, Chem. Sci., 2017, 8, 4879.
   DOI: 10.1039/c7sc00601b
   
   for metadynamics refer to:
   S. Grimme, J. Chem. Theory Comput. Article ASAP, 2019,
   DOI: 10.1021/acs.jctc.9b00143
   
   with help from (in alphabetical order)
   C. Bannwarth, F. Bohle, G. Brandenburg, E. Caldeweyher, M. Checinski,
   S. Dohm, S. Ehlert, S. Ehrlich, F. März, H. Neugebauer, J. Pisarek,
   P. Pracht, P. Shushkov, and S. Spicher.
   
 * started run on 2021/06/02 at 10:00:06.588     

           -------------------------------------------------
          |                Calculation Setup                |
           -------------------------------------------------

          program call               : /groups/kemi/koerstz/opt/xtb/6.1/bin/xtb 43.xyz --gfn2 --acc 0.2 --chrg 0
          hostname                   : node305
          coordinate file            : 43.xyz
          omp threads                :                     1
          number of atoms            :                     9
          number of electrons        :                    36
          charge                     :                     0
          spin                       :                   0.0
          first test random number   :      0.20779965755668


########################################################################
# WARNING! Please study the warnings concerning your input carefully
#  - XTBPATH is not set, using XTBHOME instead
########################################################################

           ------------------------------------------------- 
          |                 G F N 2 - x T B                 |
          | Geometry, Frequencies, Noncovalent interactions |
          |            JCTC 2018 parametrisation            |
           ------------------------------------------------- 
             k(s)              :                1.8500
             k(p)              :                2.2300
             k(d)              :                2.2300
             k(f)              :                2.0000
             kEN (H0ij)        :               -2.0000
             D4 a1             :                0.5200
             D4 a2             :                5.0000
             D4 s6             :                1.0000
             D4 s8             :                2.7000
             D4 s9             :                5.0000
             alphaj            :                2.0000

  Z AO/shell   Hii/eV     exponent
  1     Wed Apr 25 08:07:45 CEST 2018   EN: 2.200 GM2: 0.406  GM3: 0.0800  RAES: 1.40
     1s    -10.707211    1.230000
  6     Wed Apr 25 08:07:45 CEST 2018   EN: 2.550 GM2: 0.538  GM3: 0.1500  RAES: 3.00
     2s    -13.970922    2.096432
     2p    -10.063292    1.800000
  7     Wed Apr 25 08:07:45 CEST 2018   EN: 3.040 GM2: 0.461  GM3:-0.0640  RAES: 1.90
     2s    -16.686243    2.339881
     2p    -12.523956    2.014332
  8     Wed Apr 25 08:07:45 CEST 2018   EN: 3.440 GM2: 0.452  GM3:-0.0517  RAES: 1.80
     2s    -20.229985    2.439742
     2p    -15.503117    2.137023


            Z     q(EN)     CN     RAES       Cart. coordinates
     1  N   5.0   -0.31    3.02    1.93    -0.43559    -1.35325    -2.36447
     2  C   4.0    0.27    3.07    3.02    -0.82093    -2.07893     0.20901
     3  N   5.0   -0.15    2.01    1.90    -2.81319    -3.12695     1.04061
     4  N   5.0   -0.16    1.01    1.90    -4.61519    -3.69071     2.08224
     5  O   6.0    0.01    2.02    1.83     2.21706    -0.66486    -2.42172
     6  N   5.0   -0.22    2.06    1.90     3.29828    -1.19700    -0.17728
     7  C   4.0    0.12    3.06    3.02     1.64671    -2.03233     1.37215
     8  H   1.0    0.28    1.00    1.43    -1.42392     0.20547    -2.94593
     9  H   1.0    0.17    1.00    1.43     2.09888    -2.56286     3.26402

           ------------------------------------------------- 
          |        Self-Consistent Charge Iterations        |
           ------------------------------------------------- 
q/qsh data taken from xtbrestart
CAMM data taken from xtbrestart

          ...................................................
          :                      SETUP                      :
          :.................................................:
          :  # basis functions                  30          :
          :  # atomic orbitals                  30          :
          :  # shells                           16          :
          :  # electrons                        36          :
          :  max. iterations                   250          :
          :  Hamiltonian                  GFN2-xTB          :
          :  restarted?                       true          :
          :  GBSA solvation                  false          :
          :  PC potential                    false          :
          :  electronic temp.          300.0000000     K    :
          :  accuracy                    0.2000000          :
          :  -> integral cutoff          0.3198970E+02      :
          :  -> integral neglect         0.2000000E-08      :
          :  -> SCF convergence          0.2000000E-06 Eh   :
          :  -> wf. convergence          0.2000000E-04 e    :
          :  Broyden damping             0.4000000          :
          ...................................................

 iter      E             dE          RMSdq      gap      omega  full diag
   1    -20.9982483 -0.209982E+02  0.652E+00    0.77       0.0  T
   2    -21.0597784 -0.615301E-01  0.452E+00    1.99       1.0  T
   3    -21.0632645 -0.348614E-02  0.272E+00    0.98       1.0  T
   4    -21.0886127 -0.253482E-01  0.126E+00    1.35       1.0  T
   5    -21.0993032 -0.106905E-01  0.384E-01    1.12       1.0  T
   6    -21.0998328 -0.529655E-03  0.186E-01    1.15       1.0  T
   7    -21.0998738 -0.409998E-04  0.621E-02    1.14       1.0  T
   8    -21.0998869 -0.130432E-04  0.232E-02    1.13       1.4  T
   9    -21.0998872 -0.285545E-06  0.938E-03    1.13       3.6  T
  10    -21.0998875 -0.334714E-06  0.258E-03    1.13      12.9  T
  11    -21.0998875 -0.243289E-07  0.123E-03    1.13      27.0  T
  12    -21.0998875 -0.564221E-08  0.324E-04    1.13     103.0  T
  13    -21.0998875 -0.178048E-09  0.146E-04    1.13     227.8  T
  14    -21.0998875 -0.111200E-10  0.600E-05    1.13     555.2  T

   *** convergence criteria satisfied after 14 iterations ***

         #    Occupation            Energy/Eh            Energy/eV
      -------------------------------------------------------------
         1        2.0000           -0.7715659             -20.9954
       ...           ...                  ...                  ...
        12        2.0000           -0.5351201             -14.5614
        13        2.0000           -0.5211927             -14.1824
        14        2.0000           -0.4912590             -13.3678
        15        2.0000           -0.4795976             -13.0505
        16        2.0000           -0.4675366             -12.7223
        17        2.0000           -0.4426607             -12.0454
        18        2.0000           -0.3615155              -9.8373 (HOMO)
        19                         -0.3199291              -8.7057 (LUMO)
        20                         -0.2825695              -7.6891
        21                         -0.1881606              -5.1201
        22                         -0.1349429              -3.6720
        23                         -0.0161001              -0.4381
       ...                                ...                  ...
        30                          0.9730022              26.4767
      -------------------------------------------------------------
                  HL-Gap            0.0415864 Eh            1.1316 eV
             Fermi-level           -0.3407223 Eh           -9.2715 eV

 SCC (total)                   0 d,  0 h,  0 min,  0.007 sec
 SCC setup                      ...        0 min,  0.000 sec (  1.681%)
 Dispersion                     ...        0 min,  0.000 sec (  0.711%)
 integral evaluation            ...        0 min,  0.001 sec ( 14.305%)
 zeroth order Hamiltonian       ...        0 min,  0.000 sec (  0.416%)
 iterations                     ...        0 min,  0.004 sec ( 53.860%)
 molecular gradient             ...        0 min,  0.002 sec ( 26.205%)
 printout                       ...        0 min,  0.000 sec (  2.379%)

         :::::::::::::::::::::::::::::::::::::::::::::::::::::
         ::                     SUMMARY                     ::
         :::::::::::::::::::::::::::::::::::::::::::::::::::::
         :: total energy              -20.875147617099 Eh   ::
         :: gradient norm               0.009993509869 Eh/α ::
         :: HOMO-LUMO gap               1.131624422463 eV   ::
         ::.................................................::
         :: SCC energy                -21.099887539572 Eh   ::
         :: -> isotropic ES             0.014264730548 Eh   ::
         :: -> anisotropic ES           0.004097328052 Eh   ::
         :: -> anisotropic XC           0.031033047840 Eh   ::
         :: -> dispersion              -0.005838769781 Eh   ::
         :: repulsion energy            0.224736768535 Eh   ::
         :: add. restraining            0.000000000000 Eh   ::
         :::::::::::::::::::::::::::::::::::::::::::::::::::::

           -------------------------------------------------
          |                Property Printout                |
           -------------------------------------------------

    * Orbital Energies and Occupations

         #    Occupation            Energy/Eh            Energy/eV
      -------------------------------------------------------------
         1        2.0000           -0.7715659             -20.9954
       ...           ...                  ...                  ...
         6        2.0000           -0.6494821             -17.6733
         7        2.0000           -0.6169320             -16.7876
         8        2.0000           -0.6084632             -16.5571
         9        2.0000           -0.5836883             -15.8830
        10        2.0000           -0.5825301             -15.8515
        11        2.0000           -0.5754729             -15.6594
        12        2.0000           -0.5351201             -14.5614
        13        2.0000           -0.5211927             -14.1824
        14        2.0000           -0.4912590             -13.3678
        15        2.0000           -0.4795976             -13.0505
        16        2.0000           -0.4675366             -12.7223
        17        2.0000           -0.4426607             -12.0454
        18        2.0000           -0.3615155              -9.8373 (HOMO)
        19                         -0.3199291              -8.7057 (LUMO)
        20                         -0.2825695              -7.6891
        21                         -0.1881606              -5.1201
        22                         -0.1349429              -3.6720
        23                         -0.0161001              -0.4381
        24                          0.0172248               0.4687
        25                          0.1097296               2.9859
        26                          0.1741110               4.7378
        27                          0.2080816               5.6622
        28                          0.3634036               9.8887
        29                          0.4913171              13.3694
        30                          0.9730022              26.4767
      -------------------------------------------------------------
                  HL-Gap            0.0415864 Eh            1.1316 eV
             Fermi-level           -0.3407223 Eh           -9.2715 eV

   #   Z        covCN         q      C6AA      α(0)
   1   7 N      2.712    -0.116    23.521     7.203
   2   6 C      2.863     0.050    26.882     8.499
   3   7 N      1.897     0.148    19.348     6.521
   4   7 N      0.987    -0.161    24.074     7.055
   5   8 O      1.858    -0.136    16.338     5.459
   6   7 N      1.893    -0.067    23.271     7.152
   7   6 C      2.877     0.043    27.031     8.523
   8   1 H      0.859     0.172     1.259     1.758
   9   1 H      0.927     0.066     2.125     2.280

 Mol. C6AA /au·bohr⁶  :       1290.356332
 Mol. C8AA /au·bohr⁸  :      29521.474389
 Mol. α(0) /au        :         54.448372


Wiberg/Mayer (AO) data.
largest (>0.10) Wiberg bond orders for each atom
          total WBO             WBO to atom ...
     1  N   3.135        C    2 1.013    O    5 0.940    H    8 0.935
     2  C   3.893        N    3 1.395    C    7 1.111    N    1 1.013    N    4 0.310
     3  N   3.752        N    4 2.195    C    2 1.395
     4  N   2.833        N    3 2.195    C    2 0.310    N    6 0.117
     5  O   2.230        N    6 1.085    N    1 0.940    C    7 0.103
     6  N   3.089        C    7 1.715    O    5 1.085    N    4 0.117
     7  C   3.977        N    6 1.715    C    2 1.111    H    9 0.962    O    5 0.103
     8  H   0.970        N    1 0.935
     9  H   0.996        C    7 0.962

molecular dipole:
                 x           y           z       tot (Debye)
 q only:       -0.222       0.132       0.213
   full:       -0.362       0.358       0.304       1.508
molecular quadrupole (traceless):
                xx          xy          yy          xz          yz          zz
 q only:       -2.894      -2.264       1.013       4.546      -0.975       1.881
  q+dip:       -6.194      -4.468       3.041       6.626      -1.597       3.154
   full:       -6.647      -4.870       3.190       7.320      -1.486       3.457


           -------------------------------------------------
          | TOTAL ENERGY              -20.875147617099 Eh   |
          | GRADIENT NORM               0.009993509869 Eh/α |
          | HOMO-LUMO GAP               1.131624422463 eV   |
           -------------------------------------------------

------------------------------------------------------------------------
 * finished run on 2021/06/02 at 10:00:06.603     
------------------------------------------------------------------------
 total:
 * wall-time:     0 d,  0 h,  0 min,  0.015 sec
 *  cpu-time:     0 d,  0 h,  0 min,  0.015 sec
 * ratio c/w:     0.987 speedup
 SCF:
 * wall-time:     0 d,  0 h,  0 min,  0.008 sec
 *  cpu-time:     0 d,  0 h,  0 min,  0.008 sec
 * ratio c/w:     1.000 speedup

