      -----------------------------------------------------------      
     |                   =====================                   |     
     |                           x T B                           |     
     |                   =====================                   |     
     |                         S. Grimme                         |     
     |          Mulliken Center for Theoretical Chemistry        |     
     |                    University of Bonn                     |     
     |                 Version 6.1.4 (SAW190525)                 |     
      -----------------------------------------------------------      

   This program is distributed in the hope that it will be useful,
   but WITHOUT ANY WARRANTY; without even the implied warranty of
   MERCHANTABILITY or FITNESS FOR A PARTICULAR PURPOSE.
   
   FOR NON-COMMERCIAL, ACADEMIA USE ONLY.
   
   Cite this work as:
   S. Grimme, C. Bannwarth, P. Shushkov, J. Comput. Theory Chem., 2017,
   13, 1989-2009. DOI: 10.1021/acs.jctc.7b00118
   C. Bannwarth, S. Ehlert and S. Grimme., J. Comput. Theory Chem., 2019,
   just accepted. DOI: 10.1021/acs.jctc.8b01176
   
   for sTDA-xTB:
   S. Grimme and C. Bannwarth, J. Chem. Phys., 2016, 145, 054103.
   DOI: 10.1063/1.4959605
   
   in the mass-spec context:
   V. Asgeirsson, C. Bauer and S. Grimme, Chem. Sci., 2017, 8, 4879.
   DOI: 10.1039/c7sc00601b
   
   for metadynamics refer to:
   S. Grimme, J. Chem. Theory Comput. Article ASAP, 2019,
   DOI: 10.1021/acs.jctc.9b00143
   
   with help from (in alphabetical order)
   C. Bannwarth, F. Bohle, G. Brandenburg, E. Caldeweyher, M. Checinski,
   S. Dohm, S. Ehlert, S. Ehrlich, F. März, H. Neugebauer, J. Pisarek,
   P. Pracht, P. Shushkov, and S. Spicher.
   
 * started run on 2021/06/02 at 10:00:07.030     

           -------------------------------------------------
          |                Calculation Setup                |
           -------------------------------------------------

          program call               : /groups/kemi/koerstz/opt/xtb/6.1/bin/xtb 45.xyz --gfn2 --acc 0.2 --chrg 0
          hostname                   : node305
          coordinate file            : 45.xyz
          omp threads                :                     1
          number of atoms            :                     9
          number of electrons        :                    36
          charge                     :                     0
          spin                       :                   0.0
          first test random number   :      0.08855021024438


########################################################################
# WARNING! Please study the warnings concerning your input carefully
#  - XTBPATH is not set, using XTBHOME instead
########################################################################

           ------------------------------------------------- 
          |                 G F N 2 - x T B                 |
          | Geometry, Frequencies, Noncovalent interactions |
          |            JCTC 2018 parametrisation            |
           ------------------------------------------------- 
             k(s)              :                1.8500
             k(p)              :                2.2300
             k(d)              :                2.2300
             k(f)              :                2.0000
             kEN (H0ij)        :               -2.0000
             D4 a1             :                0.5200
             D4 a2             :                5.0000
             D4 s6             :                1.0000
             D4 s8             :                2.7000
             D4 s9             :                5.0000
             alphaj            :                2.0000

  Z AO/shell   Hii/eV     exponent
  1     Wed Apr 25 08:07:45 CEST 2018   EN: 2.200 GM2: 0.406  GM3: 0.0800  RAES: 1.40
     1s    -10.707211    1.230000
  6     Wed Apr 25 08:07:45 CEST 2018   EN: 2.550 GM2: 0.538  GM3: 0.1500  RAES: 3.00
     2s    -13.970922    2.096432
     2p    -10.063292    1.800000
  7     Wed Apr 25 08:07:45 CEST 2018   EN: 3.040 GM2: 0.461  GM3:-0.0640  RAES: 1.90
     2s    -16.686243    2.339881
     2p    -12.523956    2.014332
  8     Wed Apr 25 08:07:45 CEST 2018   EN: 3.440 GM2: 0.452  GM3:-0.0517  RAES: 1.80
     2s    -20.229985    2.439742
     2p    -15.503117    2.137023


            Z     q(EN)     CN     RAES       Cart. coordinates
     1  N   5.0   -0.32    3.02    1.93    -0.44637    -1.32245    -2.36470
     2  C   4.0    0.27    3.07    3.02    -0.82761    -2.08282     0.20127
     3  N   5.0   -0.15    2.01    1.90    -2.82898    -3.10714     1.02434
     4  N   5.0   -0.16    1.01    1.90    -4.58524    -3.75123     2.09337
     5  O   6.0    0.01    2.01    1.83     2.22836    -0.72136    -2.44562
     6  N   5.0   -0.22    2.06    1.90     3.29884    -1.23353    -0.18793
     7  C   4.0    0.12    3.06    3.02     1.63860    -2.02473     1.36932
     8  H   1.0    0.28    1.00    1.43    -1.40572     0.25225    -2.91692
     9  H   1.0    0.17    1.00    1.43     2.08024    -2.51041     3.28551

           ------------------------------------------------- 
          |        Self-Consistent Charge Iterations        |
           ------------------------------------------------- 
q/qsh data taken from xtbrestart
CAMM data taken from xtbrestart

          ...................................................
          :                      SETUP                      :
          :.................................................:
          :  # basis functions                  30          :
          :  # atomic orbitals                  30          :
          :  # shells                           16          :
          :  # electrons                        36          :
          :  max. iterations                   250          :
          :  Hamiltonian                  GFN2-xTB          :
          :  restarted?                       true          :
          :  GBSA solvation                  false          :
          :  PC potential                    false          :
          :  electronic temp.          300.0000000     K    :
          :  accuracy                    0.2000000          :
          :  -> integral cutoff          0.3198970E+02      :
          :  -> integral neglect         0.2000000E-08      :
          :  -> SCF convergence          0.2000000E-06 Eh   :
          :  -> wf. convergence          0.2000000E-04 e    :
          :  Broyden damping             0.4000000          :
          ...................................................

 iter      E             dE          RMSdq      gap      omega  full diag
   1    -20.8360294 -0.208360E+02  0.648E+00    0.20       0.0  T
   2    -20.9424163 -0.106387E+00  0.538E+00    2.49       1.0  T
   3    -21.0910835 -0.148667E+00  0.295E+00    1.36       1.0  T
   4    -21.0981085 -0.702504E-02  0.152E+00    1.29       1.0  T
   5    -21.0987785 -0.670017E-03  0.606E-01    1.01       1.0  T
   6    -21.1017354 -0.295691E-02  0.175E-01    1.11       1.0  T
   7    -21.1018223 -0.869084E-04  0.102E-01    1.13       1.0  T
   8    -21.1018300 -0.767058E-05  0.351E-02    1.13       1.0  T
   9    -21.1018346 -0.454899E-05  0.156E-02    1.13       2.1  T
  10    -21.1018353 -0.716392E-06  0.692E-03    1.12       4.8  T
  11    -21.1018353 -0.714084E-07  0.175E-03    1.13      19.1  T
  12    -21.1018353 -0.280302E-08  0.925E-04    1.13      36.0  T
  13    -21.1018353 -0.218198E-08  0.398E-04    1.13      83.7  T
  14    -21.1018353 -0.884729E-09  0.108E-04    1.13     308.9  T
  15    -21.1018353 -0.109424E-10  0.263E-05    1.13    1267.9  T

   *** convergence criteria satisfied after 15 iterations ***

         #    Occupation            Energy/Eh            Energy/eV
      -------------------------------------------------------------
         1        2.0000           -0.7707910             -20.9743
       ...           ...                  ...                  ...
        12        2.0000           -0.5353366             -14.5672
        13        2.0000           -0.5212857             -14.1849
        14        2.0000           -0.4914463             -13.3729
        15        2.0000           -0.4785136             -13.0210
        16        2.0000           -0.4668811             -12.7045
        17        2.0000           -0.4429218             -12.0525
        18        2.0000           -0.3616439              -9.8408 (HOMO)
        19                         -0.3202906              -8.7156 (LUMO)
        20                         -0.2816446              -7.6639
        21                         -0.1860652              -5.0631
        22                         -0.1357611              -3.6942
        23                         -0.0191051              -0.5199
       ...                                ...                  ...
        30                          0.9864791              26.8435
      -------------------------------------------------------------
                  HL-Gap            0.0413533 Eh            1.1253 eV
             Fermi-level           -0.3409673 Eh           -9.2782 eV

 SCC (total)                   0 d,  0 h,  0 min,  0.008 sec
 SCC setup                      ...        0 min,  0.000 sec (  1.651%)
 Dispersion                     ...        0 min,  0.000 sec (  0.765%)
 integral evaluation            ...        0 min,  0.001 sec ( 13.879%)
 zeroth order Hamiltonian       ...        0 min,  0.000 sec (  0.406%)
 iterations                     ...        0 min,  0.004 sec ( 55.575%)
 molecular gradient             ...        0 min,  0.002 sec ( 25.078%)
 printout                       ...        0 min,  0.000 sec (  2.221%)

         :::::::::::::::::::::::::::::::::::::::::::::::::::::
         ::                     SUMMARY                     ::
         :::::::::::::::::::::::::::::::::::::::::::::::::::::
         :: total energy              -20.875333106012 Eh   ::
         :: gradient norm               0.006696241298 Eh/α ::
         :: HOMO-LUMO gap               1.125281219180 eV   ::
         ::.................................................::
         :: SCC energy                -21.101835346066 Eh   ::
         :: -> isotropic ES             0.014368826884 Eh   ::
         :: -> anisotropic ES           0.004112272430 Eh   ::
         :: -> anisotropic XC           0.031115265442 Eh   ::
         :: -> dispersion              -0.005840116897 Eh   ::
         :: repulsion energy            0.226499064103 Eh   ::
         :: add. restraining            0.000000000000 Eh   ::
         :::::::::::::::::::::::::::::::::::::::::::::::::::::

           -------------------------------------------------
          |                Property Printout                |
           -------------------------------------------------

    * Orbital Energies and Occupations

         #    Occupation            Energy/Eh            Energy/eV
      -------------------------------------------------------------
         1        2.0000           -0.7707910             -20.9743
       ...           ...                  ...                  ...
         6        2.0000           -0.6493217             -17.6689
         7        2.0000           -0.6169637             -16.7884
         8        2.0000           -0.6087666             -16.5654
         9        2.0000           -0.5841329             -15.8951
        10        2.0000           -0.5824212             -15.8485
        11        2.0000           -0.5755160             -15.6606
        12        2.0000           -0.5353366             -14.5672
        13        2.0000           -0.5212857             -14.1849
        14        2.0000           -0.4914463             -13.3729
        15        2.0000           -0.4785136             -13.0210
        16        2.0000           -0.4668811             -12.7045
        17        2.0000           -0.4429218             -12.0525
        18        2.0000           -0.3616439              -9.8408 (HOMO)
        19                         -0.3202906              -8.7156 (LUMO)
        20                         -0.2816446              -7.6639
        21                         -0.1860652              -5.0631
        22                         -0.1357611              -3.6942
        23                         -0.0191051              -0.5199
        24                          0.0188894               0.5140
        25                          0.1161445               3.1605
        26                          0.1693500               4.6082
        27                          0.2107765               5.7355
        28                          0.3631459               9.8817
        29                          0.4928758              13.4118
        30                          0.9864791              26.8435
      -------------------------------------------------------------
                  HL-Gap            0.0413533 Eh            1.1253 eV
             Fermi-level           -0.3409673 Eh           -9.2782 eV

   #   Z        covCN         q      C6AA      α(0)
   1   7 N      2.712    -0.117    23.550     7.207
   2   6 C      2.862     0.049    26.893     8.500
   3   7 N      1.897     0.151    19.305     6.514
   4   7 N      0.987    -0.161    24.068     7.054
   5   8 O      1.857    -0.137    16.349     5.460
   6   7 N      1.892    -0.066    23.264     7.150
   7   6 C      2.875     0.044    27.015     8.521
   8   1 H      0.860     0.172     1.263     1.761
   9   1 H      0.926     0.066     2.130     2.282

 Mol. C6AA /au·bohr⁶  :       1290.467442
 Mol. C8AA /au·bohr⁸  :      29522.184046
 Mol. α(0) /au        :         54.450565


Wiberg/Mayer (AO) data.
largest (>0.10) Wiberg bond orders for each atom
          total WBO             WBO to atom ...
     1  N   3.132        C    2 1.011    O    5 0.941    H    8 0.936
     2  C   3.895        N    3 1.400    C    7 1.107    N    1 1.011    N    4 0.312
     3  N   3.756        N    4 2.195    C    2 1.400
     4  N   2.835        N    3 2.195    C    2 0.312    N    6 0.118
     5  O   2.228        N    6 1.083    N    1 0.941    C    7 0.103
     6  N   3.091        C    7 1.719    O    5 1.083    N    4 0.118
     7  C   3.977        N    6 1.719    C    2 1.107    H    9 0.962    O    5 0.103
     8  H   0.971        N    1 0.936
     9  H   0.996        C    7 0.962

molecular dipole:
                 x           y           z       tot (Debye)
 q only:       -0.234       0.157       0.228
   full:       -0.374       0.402       0.326       1.623
molecular quadrupole (traceless):
                xx          xy          yy          xz          yz          zz
 q only:       -2.757      -2.225       0.930       4.521      -0.980       1.828
  q+dip:       -6.008      -4.379       2.900       6.588      -1.564       3.108
   full:       -6.431      -4.820       3.048       7.281      -1.457       3.384


           -------------------------------------------------
          | TOTAL ENERGY              -20.875333106012 Eh   |
          | GRADIENT NORM               0.006696241298 Eh/α |
          | HOMO-LUMO GAP               1.125281219180 eV   |
           -------------------------------------------------

------------------------------------------------------------------------
 * finished run on 2021/06/02 at 10:00:07.046     
------------------------------------------------------------------------
 total:
 * wall-time:     0 d,  0 h,  0 min,  0.015 sec
 *  cpu-time:     0 d,  0 h,  0 min,  0.015 sec
 * ratio c/w:     0.986 speedup
 SCF:
 * wall-time:     0 d,  0 h,  0 min,  0.008 sec
 *  cpu-time:     0 d,  0 h,  0 min,  0.008 sec
 * ratio c/w:     1.000 speedup

