      -----------------------------------------------------------      
     |                   =====================                   |     
     |                           x T B                           |     
     |                   =====================                   |     
     |                         S. Grimme                         |     
     |          Mulliken Center for Theoretical Chemistry        |     
     |                    University of Bonn                     |     
     |                 Version 6.1.4 (SAW190525)                 |     
      -----------------------------------------------------------      

   This program is distributed in the hope that it will be useful,
   but WITHOUT ANY WARRANTY; without even the implied warranty of
   MERCHANTABILITY or FITNESS FOR A PARTICULAR PURPOSE.
   
   FOR NON-COMMERCIAL, ACADEMIA USE ONLY.
   
   Cite this work as:
   S. Grimme, C. Bannwarth, P. Shushkov, J. Comput. Theory Chem., 2017,
   13, 1989-2009. DOI: 10.1021/acs.jctc.7b00118
   C. Bannwarth, S. Ehlert and S. Grimme., J. Comput. Theory Chem., 2019,
   just accepted. DOI: 10.1021/acs.jctc.8b01176
   
   for sTDA-xTB:
   S. Grimme and C. Bannwarth, J. Chem. Phys., 2016, 145, 054103.
   DOI: 10.1063/1.4959605
   
   in the mass-spec context:
   V. Asgeirsson, C. Bauer and S. Grimme, Chem. Sci., 2017, 8, 4879.
   DOI: 10.1039/c7sc00601b
   
   for metadynamics refer to:
   S. Grimme, J. Chem. Theory Comput. Article ASAP, 2019,
   DOI: 10.1021/acs.jctc.9b00143
   
   with help from (in alphabetical order)
   C. Bannwarth, F. Bohle, G. Brandenburg, E. Caldeweyher, M. Checinski,
   S. Dohm, S. Ehlert, S. Ehrlich, F. März, H. Neugebauer, J. Pisarek,
   P. Pracht, P. Shushkov, and S. Spicher.
   
 * started run on 2021/06/02 at 10:00:06.728     

           -------------------------------------------------
          |                Calculation Setup                |
           -------------------------------------------------

          program call               : /groups/kemi/koerstz/opt/xtb/6.1/bin/xtb 46.xyz --gfn2 --acc 0.2 --chrg 0
          hostname                   : node305
          coordinate file            : 46.xyz
          omp threads                :                     1
          number of atoms            :                     9
          number of electrons        :                    36
          charge                     :                     0
          spin                       :                   0.0
          first test random number   :      0.59953690364986


########################################################################
# WARNING! Please study the warnings concerning your input carefully
#  - XTBPATH is not set, using XTBHOME instead
########################################################################

           ------------------------------------------------- 
          |                 G F N 2 - x T B                 |
          | Geometry, Frequencies, Noncovalent interactions |
          |            JCTC 2018 parametrisation            |
           ------------------------------------------------- 
             k(s)              :                1.8500
             k(p)              :                2.2300
             k(d)              :                2.2300
             k(f)              :                2.0000
             kEN (H0ij)        :               -2.0000
             D4 a1             :                0.5200
             D4 a2             :                5.0000
             D4 s6             :                1.0000
             D4 s8             :                2.7000
             D4 s9             :                5.0000
             alphaj            :                2.0000

  Z AO/shell   Hii/eV     exponent
  1     Wed Apr 25 08:07:45 CEST 2018   EN: 2.200 GM2: 0.406  GM3: 0.0800  RAES: 1.40
     1s    -10.707211    1.230000
  6     Wed Apr 25 08:07:45 CEST 2018   EN: 2.550 GM2: 0.538  GM3: 0.1500  RAES: 3.00
     2s    -13.970922    2.096432
     2p    -10.063292    1.800000
  7     Wed Apr 25 08:07:45 CEST 2018   EN: 3.040 GM2: 0.461  GM3:-0.0640  RAES: 1.90
     2s    -16.686243    2.339881
     2p    -12.523956    2.014332
  8     Wed Apr 25 08:07:45 CEST 2018   EN: 3.440 GM2: 0.452  GM3:-0.0517  RAES: 1.80
     2s    -20.229985    2.439742
     2p    -15.503117    2.137023


            Z     q(EN)     CN     RAES       Cart. coordinates
     1  N   5.0   -0.32    3.02    1.93    -0.43869    -1.32132    -2.34844
     2  C   4.0    0.27    3.07    3.02    -0.82435    -2.07498     0.21315
     3  N   5.0   -0.15    2.01    1.90    -2.83044    -3.09907     1.02687
     4  N   5.0   -0.16    1.01    1.90    -4.60342    -3.73471     2.08175
     5  O   6.0    0.01    2.02    1.83     2.22911    -0.70480    -2.43757
     6  N   5.0   -0.22    2.06    1.90     3.30184    -1.21028    -0.17961
     7  C   4.0    0.12    3.06    3.02     1.64840    -2.03382     1.36799
     8  H   1.0    0.28    1.00    1.43    -1.42874     0.21907    -2.94091
     9  H   1.0    0.17    1.00    1.43     2.09839    -2.54149     3.27541

           ------------------------------------------------- 
          |        Self-Consistent Charge Iterations        |
           ------------------------------------------------- 
q/qsh data taken from xtbrestart
CAMM data taken from xtbrestart

          ...................................................
          :                      SETUP                      :
          :.................................................:
          :  # basis functions                  30          :
          :  # atomic orbitals                  30          :
          :  # shells                           16          :
          :  # electrons                        36          :
          :  max. iterations                   250          :
          :  Hamiltonian                  GFN2-xTB          :
          :  restarted?                       true          :
          :  GBSA solvation                  false          :
          :  PC potential                    false          :
          :  electronic temp.          300.0000000     K    :
          :  accuracy                    0.2000000          :
          :  -> integral cutoff          0.3198970E+02      :
          :  -> integral neglect         0.2000000E-08      :
          :  -> SCF convergence          0.2000000E-06 Eh   :
          :  -> wf. convergence          0.2000000E-04 e    :
          :  Broyden damping             0.4000000          :
          ...................................................

 iter      E             dE          RMSdq      gap      omega  full diag
   1    -20.8771955 -0.208772E+02  0.620E+00    0.61       0.0  T
   2    -21.0125331 -0.135338E+00  0.508E+00    2.48       1.0  T
   3    -21.0907718 -0.782386E-01  0.284E+00    1.37       1.0  T
   4    -21.0889078  0.186400E-02  0.166E+00    1.42       1.0  T
   5    -21.0986236 -0.971589E-02  0.531E-01    1.02       1.0  T
   6    -21.1009528 -0.232920E-02  0.152E-01    1.09       1.0  T
   7    -21.1009862 -0.333444E-04  0.104E-01    1.11       1.0  T
   8    -21.1010209 -0.347239E-04  0.315E-02    1.10       1.1  T
   9    -21.1010234 -0.250317E-05  0.125E-02    1.10       2.7  T
  10    -21.1010235 -0.116982E-06  0.632E-03    1.10       5.3  T
  11    -21.1010237 -0.124675E-06  0.185E-03    1.10      18.1  T
  12    -21.1010237 -0.663473E-08  0.603E-04    1.10      55.3  T
  13    -21.1010237 -0.157474E-09  0.278E-04    1.10     120.0  T
  14    -21.1010237 -0.468372E-09  0.119E-04    1.10     280.3  T
  15    -21.1010237 -0.996074E-10  0.159E-05    1.10    2094.4  T

   *** convergence criteria satisfied after 15 iterations ***

         #    Occupation            Energy/Eh            Energy/eV
      -------------------------------------------------------------
         1        2.0000           -0.7712599             -20.9870
       ...           ...                  ...                  ...
        12        2.0000           -0.5352844             -14.5658
        13        2.0000           -0.5209658             -14.1762
        14        2.0000           -0.4908521             -13.3568
        15        2.0000           -0.4788824             -13.0311
        16        2.0000           -0.4670986             -12.7104
        17        2.0000           -0.4430101             -12.0549
        18        2.0000           -0.3607453              -9.8164 (HOMO)
        19                         -0.3203474              -8.7171 (LUMO)
        20                         -0.2816997              -7.6654
        21                         -0.1860214              -5.0619
        22                         -0.1351775              -3.6784
        23                         -0.0182047              -0.4954
       ...                                ...                  ...
        30                          0.9798412              26.6628
      -------------------------------------------------------------
                  HL-Gap            0.0403979 Eh            1.0993 eV
             Fermi-level           -0.3405463 Eh           -9.2667 eV

 SCC (total)                   0 d,  0 h,  0 min,  0.008 sec
 SCC setup                      ...        0 min,  0.000 sec (  1.596%)
 Dispersion                     ...        0 min,  0.000 sec (  0.709%)
 integral evaluation            ...        0 min,  0.001 sec ( 13.756%)
 zeroth order Hamiltonian       ...        0 min,  0.000 sec (  0.411%)
 iterations                     ...        0 min,  0.004 sec ( 54.489%)
 molecular gradient             ...        0 min,  0.002 sec ( 26.214%)
 printout                       ...        0 min,  0.000 sec (  2.329%)

         :::::::::::::::::::::::::::::::::::::::::::::::::::::
         ::                     SUMMARY                     ::
         :::::::::::::::::::::::::::::::::::::::::::::::::::::
         :: total energy              -20.875286211937 Eh   ::
         :: gradient norm               0.007254517934 Eh/α ::
         :: HOMO-LUMO gap               1.099282776193 eV   ::
         ::.................................................::
         :: SCC energy                -21.101023666145 Eh   ::
         :: -> isotropic ES             0.014267593820 Eh   ::
         :: -> anisotropic ES           0.004167277265 Eh   ::
         :: -> anisotropic XC           0.031066032706 Eh   ::
         :: -> dispersion              -0.005837238960 Eh   ::
         :: repulsion energy            0.225734282399 Eh   ::
         :: add. restraining            0.000000000000 Eh   ::
         :::::::::::::::::::::::::::::::::::::::::::::::::::::

           -------------------------------------------------
          |                Property Printout                |
           -------------------------------------------------

    * Orbital Energies and Occupations

         #    Occupation            Energy/Eh            Energy/eV
      -------------------------------------------------------------
         1        2.0000           -0.7712599             -20.9870
       ...           ...                  ...                  ...
         6        2.0000           -0.6492887             -17.6680
         7        2.0000           -0.6170030             -16.7895
         8        2.0000           -0.6085971             -16.5608
         9        2.0000           -0.5834339             -15.8760
        10        2.0000           -0.5824982             -15.8506
        11        2.0000           -0.5756300             -15.6637
        12        2.0000           -0.5352844             -14.5658
        13        2.0000           -0.5209658             -14.1762
        14        2.0000           -0.4908521             -13.3568
        15        2.0000           -0.4788824             -13.0311
        16        2.0000           -0.4670986             -12.7104
        17        2.0000           -0.4430101             -12.0549
        18        2.0000           -0.3607453              -9.8164 (HOMO)
        19                         -0.3203474              -8.7171 (LUMO)
        20                         -0.2816997              -7.6654
        21                         -0.1860214              -5.0619
        22                         -0.1351775              -3.6784
        23                         -0.0182047              -0.4954
        24                          0.0194848               0.5302
        25                          0.1157359               3.1493
        26                          0.1707792               4.6471
        27                          0.2111273               5.7451
        28                          0.3645650               9.9203
        29                          0.4921302              13.3915
        30                          0.9798412              26.6628
      -------------------------------------------------------------
                  HL-Gap            0.0403979 Eh            1.0993 eV
             Fermi-level           -0.3405463 Eh           -9.2667 eV

   #   Z        covCN         q      C6AA      α(0)
   1   7 N      2.715    -0.115    23.512     7.202
   2   6 C      2.861     0.050    26.874     8.497
   3   7 N      1.897     0.148    19.348     6.521
   4   7 N      0.987    -0.162    24.095     7.058
   5   8 O      1.857    -0.136    16.331     5.457
   6   7 N      1.892    -0.067    23.266     7.151
   7   6 C      2.878     0.044    27.009     8.520
   8   1 H      0.860     0.171     1.265     1.762
   9   1 H      0.926     0.066     2.129     2.282

 Mol. C6AA /au·bohr⁶  :       1290.449696
 Mol. C8AA /au·bohr⁸  :      29521.187767
 Mol. α(0) /au        :         54.450203


Wiberg/Mayer (AO) data.
largest (>0.10) Wiberg bond orders for each atom
          total WBO             WBO to atom ...
     1  N   3.139        C    2 1.013    O    5 0.942    H    8 0.936
     2  C   3.895        N    3 1.399    C    7 1.107    N    1 1.013    N    4 0.310
     3  N   3.753        N    4 2.191    C    2 1.399
     4  N   2.831        N    3 2.191    C    2 0.310    N    6 0.118
     5  O   2.229        N    6 1.083    N    1 0.942    C    7 0.103
     6  N   3.090        C    7 1.719    O    5 1.083    N    4 0.118
     7  C   3.977        N    6 1.719    C    2 1.107    H    9 0.962    O    5 0.103
     8  H   0.971        N    1 0.936
     9  H   0.996        C    7 0.962

molecular dipole:
                 x           y           z       tot (Debye)
 q only:       -0.220       0.150       0.212
   full:       -0.363       0.392       0.302       1.560
molecular quadrupole (traceless):
                xx          xy          yy          xz          yz          zz
 q only:       -2.830      -2.310       0.923       4.565      -0.935       1.906
  q+dip:       -6.092      -4.489       2.875       6.659      -1.535       3.218
   full:       -6.542      -4.924       3.020       7.344      -1.424       3.523


           -------------------------------------------------
          | TOTAL ENERGY              -20.875286211937 Eh   |
          | GRADIENT NORM               0.007254517934 Eh/α |
          | HOMO-LUMO GAP               1.099282776193 eV   |
           -------------------------------------------------

------------------------------------------------------------------------
 * finished run on 2021/06/02 at 10:00:06.743     
------------------------------------------------------------------------
 total:
 * wall-time:     0 d,  0 h,  0 min,  0.015 sec
 *  cpu-time:     0 d,  0 h,  0 min,  0.015 sec
 * ratio c/w:     0.989 speedup
 SCF:
 * wall-time:     0 d,  0 h,  0 min,  0.008 sec
 *  cpu-time:     0 d,  0 h,  0 min,  0.008 sec
 * ratio c/w:     1.000 speedup

