      -----------------------------------------------------------      
     |                   =====================                   |     
     |                           x T B                           |     
     |                   =====================                   |     
     |                         S. Grimme                         |     
     |          Mulliken Center for Theoretical Chemistry        |     
     |                    University of Bonn                     |     
     |                 Version 6.1.4 (SAW190525)                 |     
      -----------------------------------------------------------      

   This program is distributed in the hope that it will be useful,
   but WITHOUT ANY WARRANTY; without even the implied warranty of
   MERCHANTABILITY or FITNESS FOR A PARTICULAR PURPOSE.
   
   FOR NON-COMMERCIAL, ACADEMIA USE ONLY.
   
   Cite this work as:
   S. Grimme, C. Bannwarth, P. Shushkov, J. Comput. Theory Chem., 2017,
   13, 1989-2009. DOI: 10.1021/acs.jctc.7b00118
   C. Bannwarth, S. Ehlert and S. Grimme., J. Comput. Theory Chem., 2019,
   just accepted. DOI: 10.1021/acs.jctc.8b01176
   
   for sTDA-xTB:
   S. Grimme and C. Bannwarth, J. Chem. Phys., 2016, 145, 054103.
   DOI: 10.1063/1.4959605
   
   in the mass-spec context:
   V. Asgeirsson, C. Bauer and S. Grimme, Chem. Sci., 2017, 8, 4879.
   DOI: 10.1039/c7sc00601b
   
   for metadynamics refer to:
   S. Grimme, J. Chem. Theory Comput. Article ASAP, 2019,
   DOI: 10.1021/acs.jctc.9b00143
   
   with help from (in alphabetical order)
   C. Bannwarth, F. Bohle, G. Brandenburg, E. Caldeweyher, M. Checinski,
   S. Dohm, S. Ehlert, S. Ehrlich, F. März, H. Neugebauer, J. Pisarek,
   P. Pracht, P. Shushkov, and S. Spicher.
   
 * started run on 2021/06/02 at 10:00:06.627     

           -------------------------------------------------
          |                Calculation Setup                |
           -------------------------------------------------

          program call               : /groups/kemi/koerstz/opt/xtb/6.1/bin/xtb 48.xyz --gfn2 --acc 0.2 --chrg 0
          hostname                   : node305
          coordinate file            : 48.xyz
          omp threads                :                     1
          number of atoms            :                     9
          number of electrons        :                    36
          charge                     :                     0
          spin                       :                   0.0
          first test random number   :      0.25643761213738


########################################################################
# WARNING! Please study the warnings concerning your input carefully
#  - XTBPATH is not set, using XTBHOME instead
########################################################################

           ------------------------------------------------- 
          |                 G F N 2 - x T B                 |
          | Geometry, Frequencies, Noncovalent interactions |
          |            JCTC 2018 parametrisation            |
           ------------------------------------------------- 
             k(s)              :                1.8500
             k(p)              :                2.2300
             k(d)              :                2.2300
             k(f)              :                2.0000
             kEN (H0ij)        :               -2.0000
             D4 a1             :                0.5200
             D4 a2             :                5.0000
             D4 s6             :                1.0000
             D4 s8             :                2.7000
             D4 s9             :                5.0000
             alphaj            :                2.0000

  Z AO/shell   Hii/eV     exponent
  1     Wed Apr 25 08:07:45 CEST 2018   EN: 2.200 GM2: 0.406  GM3: 0.0800  RAES: 1.40
     1s    -10.707211    1.230000
  6     Wed Apr 25 08:07:45 CEST 2018   EN: 2.550 GM2: 0.538  GM3: 0.1500  RAES: 3.00
     2s    -13.970922    2.096432
     2p    -10.063292    1.800000
  7     Wed Apr 25 08:07:45 CEST 2018   EN: 3.040 GM2: 0.461  GM3:-0.0640  RAES: 1.90
     2s    -16.686243    2.339881
     2p    -12.523956    2.014332
  8     Wed Apr 25 08:07:45 CEST 2018   EN: 3.440 GM2: 0.452  GM3:-0.0517  RAES: 1.80
     2s    -20.229985    2.439742
     2p    -15.503117    2.137023


            Z     q(EN)     CN     RAES       Cart. coordinates
     1  N   5.0   -0.31    3.01    1.93    -0.44501    -1.33918    -2.36541
     2  C   4.0    0.27    3.07    3.02    -0.82060    -2.09661     0.20205
     3  N   5.0   -0.15    2.01    1.90    -2.82815    -3.09537     1.04029
     4  N   5.0   -0.16    1.01    1.90    -4.60882    -3.73839     2.07156
     5  O   6.0    0.01    2.01    1.83     2.22800    -0.71398    -2.44386
     6  N   5.0   -0.22    2.06    1.90     3.29966    -1.20886    -0.18516
     7  C   4.0    0.12    3.06    3.02     1.64683    -2.02604     1.36779
     8  H   1.0    0.28    1.00    1.43    -1.41270     0.24088    -2.90442
     9  H   1.0    0.17    1.00    1.43     2.09289    -2.52386     3.27581

           ------------------------------------------------- 
          |        Self-Consistent Charge Iterations        |
           ------------------------------------------------- 
q/qsh data taken from xtbrestart
CAMM data taken from xtbrestart

          ...................................................
          :                      SETUP                      :
          :.................................................:
          :  # basis functions                  30          :
          :  # atomic orbitals                  30          :
          :  # shells                           16          :
          :  # electrons                        36          :
          :  max. iterations                   250          :
          :  Hamiltonian                  GFN2-xTB          :
          :  restarted?                       true          :
          :  GBSA solvation                  false          :
          :  PC potential                    false          :
          :  electronic temp.          300.0000000     K    :
          :  accuracy                    0.2000000          :
          :  -> integral cutoff          0.3198970E+02      :
          :  -> integral neglect         0.2000000E-08      :
          :  -> SCF convergence          0.2000000E-06 Eh   :
          :  -> wf. convergence          0.2000000E-04 e    :
          :  Broyden damping             0.4000000          :
          ...................................................

 iter      E             dE          RMSdq      gap      omega  full diag
   1    -21.1011413 -0.211011E+02  0.331E-01    1.17       0.0  T
   2    -21.1010018  0.139570E-03  0.267E-01    1.08       1.0  T
   3    -21.1013625 -0.360729E-03  0.154E-01    1.14       1.0  T
   4    -21.1014632 -0.100694E-03  0.248E-02    1.12       1.3  T
   5    -21.1014645 -0.132000E-05  0.892E-03    1.12       3.7  T
   6    -21.1014646 -0.515178E-07  0.363E-03    1.12       9.2  T
   7    -21.1014646 -0.363029E-07  0.152E-03    1.12      21.9  T
   8    -21.1014646 -0.833454E-08  0.469E-04    1.12      71.0  T
   9    -21.1014646 -0.240689E-09  0.177E-04    1.12     188.5  T
  10    -21.1014646 -0.757083E-10  0.779E-05    1.12     427.9  T

   *** convergence criteria satisfied after 10 iterations ***

         #    Occupation            Energy/Eh            Energy/eV
      -------------------------------------------------------------
         1        2.0000           -0.7707814             -20.9740
       ...           ...                  ...                  ...
        12        2.0000           -0.5352564             -14.5651
        13        2.0000           -0.5211202             -14.1804
        14        2.0000           -0.4918478             -13.3839
        15        2.0000           -0.4784216             -13.0185
        16        2.0000           -0.4673147             -12.7163
        17        2.0000           -0.4429089             -12.0522
        18        2.0000           -0.3619655              -9.8496 (HOMO)
        19                         -0.3207108              -8.7270 (LUMO)
        20                         -0.2817680              -7.6673
        21                         -0.1859022              -5.0587
        22                         -0.1373228              -3.7367
        23                         -0.0173045              -0.4709
       ...                                ...                  ...
        30                          0.9885153              26.8989
      -------------------------------------------------------------
                  HL-Gap            0.0412547 Eh            1.1226 eV
             Fermi-level           -0.3413382 Eh           -9.2883 eV

 SCC (total)                   0 d,  0 h,  0 min,  0.007 sec
 SCC setup                      ...        0 min,  0.000 sec (  1.858%)
 Dispersion                     ...        0 min,  0.000 sec (  0.854%)
 integral evaluation            ...        0 min,  0.001 sec ( 16.199%)
 zeroth order Hamiltonian       ...        0 min,  0.000 sec (  0.520%)
 iterations                     ...        0 min,  0.003 sec ( 48.407%)
 molecular gradient             ...        0 min,  0.002 sec ( 29.191%)
 printout                       ...        0 min,  0.000 sec (  2.454%)

         :::::::::::::::::::::::::::::::::::::::::::::::::::::
         ::                     SUMMARY                     ::
         :::::::::::::::::::::::::::::::::::::::::::::::::::::
         :: total energy              -20.875451348579 Eh   ::
         :: gradient norm               0.003865494488 Eh/α ::
         :: HOMO-LUMO gap               1.122598394030 eV   ::
         ::.................................................::
         :: SCC energy                -21.101464600845 Eh   ::
         :: -> isotropic ES             0.014363092628 Eh   ::
         :: -> anisotropic ES           0.004173447492 Eh   ::
         :: -> anisotropic XC           0.031231851077 Eh   ::
         :: -> dispersion              -0.005838192943 Eh   ::
         :: repulsion energy            0.226010092271 Eh   ::
         :: add. restraining            0.000000000000 Eh   ::
         :::::::::::::::::::::::::::::::::::::::::::::::::::::

           -------------------------------------------------
          |                Property Printout                |
           -------------------------------------------------

    * Orbital Energies and Occupations

         #    Occupation            Energy/Eh            Energy/eV
      -------------------------------------------------------------
         1        2.0000           -0.7707814             -20.9740
       ...           ...                  ...                  ...
         6        2.0000           -0.6494332             -17.6720
         7        2.0000           -0.6170065             -16.7896
         8        2.0000           -0.6085710             -16.5601
         9        2.0000           -0.5841712             -15.8961
        10        2.0000           -0.5827848             -15.8584
        11        2.0000           -0.5753259             -15.6554
        12        2.0000           -0.5352564             -14.5651
        13        2.0000           -0.5211202             -14.1804
        14        2.0000           -0.4918478             -13.3839
        15        2.0000           -0.4784216             -13.0185
        16        2.0000           -0.4673147             -12.7163
        17        2.0000           -0.4429089             -12.0522
        18        2.0000           -0.3619655              -9.8496 (HOMO)
        19                         -0.3207108              -8.7270 (LUMO)
        20                         -0.2817680              -7.6673
        21                         -0.1859022              -5.0587
        22                         -0.1373228              -3.7367
        23                         -0.0173045              -0.4709
        24                          0.0187971               0.5115
        25                          0.1112328               3.0268
        26                          0.1718532               4.6764
        27                          0.2070944               5.6353
        28                          0.3636631               9.8958
        29                          0.4916788              13.3793
        30                          0.9885153              26.8989
      -------------------------------------------------------------
                  HL-Gap            0.0412547 Eh            1.1226 eV
             Fermi-level           -0.3413382 Eh           -9.2883 eV

   #   Z        covCN         q      C6AA      α(0)
   1   7 N      2.711    -0.117    23.556     7.208
   2   6 C      2.861     0.050    26.881     8.498
   3   7 N      1.897     0.150    19.310     6.515
   4   7 N      0.987    -0.160    24.054     7.053
   5   8 O      1.856    -0.137    16.350     5.461
   6   7 N      1.892    -0.066    23.264     7.150
   7   6 C      2.876     0.043    27.024     8.522
   8   1 H      0.860     0.171     1.264     1.761
   9   1 H      0.927     0.066     2.131     2.283

 Mol. C6AA /au·bohr⁶  :       1290.487648
 Mol. C8AA /au·bohr⁸  :      29522.267340
 Mol. α(0) /au        :         54.451142


Wiberg/Mayer (AO) data.
largest (>0.10) Wiberg bond orders for each atom
          total WBO             WBO to atom ...
     1  N   3.130        C    2 1.010    O    5 0.940    H    8 0.936
     2  C   3.896        N    3 1.401    C    7 1.107    N    1 1.010    N    4 0.312
     3  N   3.756        N    4 2.195    C    2 1.401
     4  N   2.834        N    3 2.195    C    2 0.312    N    6 0.118
     5  O   2.228        N    6 1.085    N    1 0.940    C    7 0.104
     6  N   3.092        C    7 1.718    O    5 1.085    N    4 0.118
     7  C   3.977        N    6 1.718    C    2 1.107    H    9 0.962    O    5 0.104
     8  H   0.971        N    1 0.936
     9  H   0.996        C    7 0.962

molecular dipole:
                 x           y           z       tot (Debye)
 q only:       -0.234       0.151       0.237
   full:       -0.372       0.392       0.341       1.625
molecular quadrupole (traceless):
                xx          xy          yy          xz          yz          zz
 q only:       -2.784      -2.237       0.956       4.488      -1.016       1.828
  q+dip:       -6.020      -4.419       2.945       6.525      -1.642       3.075
   full:       -6.473      -4.861       3.092       7.215      -1.536       3.381


           -------------------------------------------------
          | TOTAL ENERGY              -20.875451348579 Eh   |
          | GRADIENT NORM               0.003865494488 Eh/α |
          | HOMO-LUMO GAP               1.122598394030 eV   |
           -------------------------------------------------

------------------------------------------------------------------------
 * finished run on 2021/06/02 at 10:00:06.641     
------------------------------------------------------------------------
 total:
 * wall-time:     0 d,  0 h,  0 min,  0.014 sec
 *  cpu-time:     0 d,  0 h,  0 min,  0.014 sec
 * ratio c/w:     0.985 speedup
 SCF:
 * wall-time:     0 d,  0 h,  0 min,  0.007 sec
 *  cpu-time:     0 d,  0 h,  0 min,  0.007 sec
 * ratio c/w:     1.000 speedup

