      -----------------------------------------------------------      
     |                   =====================                   |     
     |                           x T B                           |     
     |                   =====================                   |     
     |                         S. Grimme                         |     
     |          Mulliken Center for Theoretical Chemistry        |     
     |                    University of Bonn                     |     
     |                 Version 6.1.4 (SAW190525)                 |     
      -----------------------------------------------------------      

   This program is distributed in the hope that it will be useful,
   but WITHOUT ANY WARRANTY; without even the implied warranty of
   MERCHANTABILITY or FITNESS FOR A PARTICULAR PURPOSE.
   
   FOR NON-COMMERCIAL, ACADEMIA USE ONLY.
   
   Cite this work as:
   S. Grimme, C. Bannwarth, P. Shushkov, J. Comput. Theory Chem., 2017,
   13, 1989-2009. DOI: 10.1021/acs.jctc.7b00118
   C. Bannwarth, S. Ehlert and S. Grimme., J. Comput. Theory Chem., 2019,
   just accepted. DOI: 10.1021/acs.jctc.8b01176
   
   for sTDA-xTB:
   S. Grimme and C. Bannwarth, J. Chem. Phys., 2016, 145, 054103.
   DOI: 10.1063/1.4959605
   
   in the mass-spec context:
   V. Asgeirsson, C. Bauer and S. Grimme, Chem. Sci., 2017, 8, 4879.
   DOI: 10.1039/c7sc00601b
   
   for metadynamics refer to:
   S. Grimme, J. Chem. Theory Comput. Article ASAP, 2019,
   DOI: 10.1021/acs.jctc.9b00143
   
   with help from (in alphabetical order)
   C. Bannwarth, F. Bohle, G. Brandenburg, E. Caldeweyher, M. Checinski,
   S. Dohm, S. Ehlert, S. Ehrlich, F. März, H. Neugebauer, J. Pisarek,
   P. Pracht, P. Shushkov, and S. Spicher.
   
 * started run on 2021/06/02 at 10:00:07.110     

           -------------------------------------------------
          |                Calculation Setup                |
           -------------------------------------------------

          program call               : /groups/kemi/koerstz/opt/xtb/6.1/bin/xtb 5.xyz --gfn2 --acc 0.2 --chrg 0
          hostname                   : node305
          coordinate file            : 5.xyz
          omp threads                :                     1
          number of atoms            :                     9
          number of electrons        :                    36
          charge                     :                     0
          spin                       :                   0.0
          first test random number   :      0.89819540192681


########################################################################
# WARNING! Please study the warnings concerning your input carefully
#  - XTBPATH is not set, using XTBHOME instead
########################################################################

           ------------------------------------------------- 
          |                 G F N 2 - x T B                 |
          | Geometry, Frequencies, Noncovalent interactions |
          |            JCTC 2018 parametrisation            |
           ------------------------------------------------- 
             k(s)              :                1.8500
             k(p)              :                2.2300
             k(d)              :                2.2300
             k(f)              :                2.0000
             kEN (H0ij)        :               -2.0000
             D4 a1             :                0.5200
             D4 a2             :                5.0000
             D4 s6             :                1.0000
             D4 s8             :                2.7000
             D4 s9             :                5.0000
             alphaj            :                2.0000

  Z AO/shell   Hii/eV     exponent
  1     Wed Apr 25 08:07:45 CEST 2018   EN: 2.200 GM2: 0.406  GM3: 0.0800  RAES: 1.40
     1s    -10.707211    1.230000
  6     Wed Apr 25 08:07:45 CEST 2018   EN: 2.550 GM2: 0.538  GM3: 0.1500  RAES: 3.00
     2s    -13.970922    2.096432
     2p    -10.063292    1.800000
  7     Wed Apr 25 08:07:45 CEST 2018   EN: 3.040 GM2: 0.461  GM3:-0.0640  RAES: 1.90
     2s    -16.686243    2.339881
     2p    -12.523956    2.014332
  8     Wed Apr 25 08:07:45 CEST 2018   EN: 3.440 GM2: 0.452  GM3:-0.0517  RAES: 1.80
     2s    -20.229985    2.439742
     2p    -15.503117    2.137023


            Z     q(EN)     CN     RAES       Cart. coordinates
     1  N   5.0   -0.46    2.01    1.90    -1.50264     1.11661    -0.60072
     2  C   4.0    0.30    3.03    3.02    -0.42629    -0.93573    -0.07722
     3  N   5.0   -0.04    2.45    1.90    -1.48035    -3.35116    -0.71286
     4  N   5.0   -0.19    1.00    1.90    -3.29804    -4.22036    -1.45244
     5  O   6.0   -0.04    1.45    1.80     1.16514    -5.27571     0.32713
     6  N   5.0   -0.19    2.03    1.90     2.69285    -3.65655     1.20270
     7  C   4.0    0.12    3.04    3.02     2.00690    -1.32043     1.07854
     8  H   1.0    0.33    1.00    1.43    -3.20406     0.98169    -1.48311
     9  H   1.0    0.17    1.00    1.43     3.19858     0.16024     1.77662

           ------------------------------------------------- 
          |        Self-Consistent Charge Iterations        |
           ------------------------------------------------- 
q/qsh data taken from xtbrestart
CAMM data taken from xtbrestart

          ...................................................
          :                      SETUP                      :
          :.................................................:
          :  # basis functions                  30          :
          :  # atomic orbitals                  30          :
          :  # shells                           16          :
          :  # electrons                        36          :
          :  max. iterations                   250          :
          :  Hamiltonian                  GFN2-xTB          :
          :  restarted?                       true          :
          :  GBSA solvation                  false          :
          :  PC potential                    false          :
          :  electronic temp.          300.0000000     K    :
          :  accuracy                    0.2000000          :
          :  -> integral cutoff          0.3198970E+02      :
          :  -> integral neglect         0.2000000E-08      :
          :  -> SCF convergence          0.2000000E-06 Eh   :
          :  -> wf. convergence          0.2000000E-04 e    :
          :  Broyden damping             0.4000000          :
          ...................................................

 iter      E             dE          RMSdq      gap      omega  full diag
   1    -21.0009066 -0.210009E+02  0.694E+00    1.49       0.0  T
   2    -21.0683412 -0.674346E-01  0.421E+00    1.26       1.0  T
   3    -21.0855734 -0.172322E-01  0.237E+00    0.97       1.0  T
   4    -21.0963248 -0.107514E-01  0.791E-01    0.90       1.0  T
   5    -21.0983543 -0.202953E-02  0.335E-01    0.72       1.0  T
   6    -21.0991041 -0.749719E-03  0.175E-01    0.78       1.0  T
   7    -21.0991832 -0.791031E-04  0.477E-02    0.77       1.0  T
   8    -21.0991904 -0.728202E-05  0.222E-02    0.76       1.5  T
   9    -21.0991908 -0.391636E-06  0.904E-03    0.76       3.7  T
  10    -21.0991911 -0.303873E-06  0.326E-03    0.77      10.2  T
  11    -21.0991912 -0.129977E-07  0.120E-03    0.76      27.7  T
  12    -21.0991912 -0.448463E-08  0.262E-04    0.76     127.3  T
  13    -21.0991912 -0.320597E-10  0.529E-05    0.76     630.5  T
  14    -21.0991912 -0.591527E-11  0.194E-05    0.76    1714.4  T

   *** convergence criteria satisfied after 14 iterations ***

         #    Occupation            Energy/Eh            Energy/eV
      -------------------------------------------------------------
         1        2.0000           -0.7595582             -20.6686
       ...           ...                  ...                  ...
        12        2.0000           -0.5398746             -14.6907
        13        2.0000           -0.5320679             -14.4783
        14        2.0000           -0.5024101             -13.6713
        15        2.0000           -0.4953473             -13.4791
        16        2.0000           -0.4564066             -12.4195
        17        2.0000           -0.4398235             -11.9682
        18        2.0000           -0.3978336             -10.8256 (HOMO)
        19        0.0000           -0.3697215             -10.0606 (LUMO)
        20                         -0.2930709              -7.9749
        21                         -0.2874543              -7.8220
        22                         -0.1998529              -5.4383
        23                          0.0010924               0.0297
       ...                                ...                  ...
        30                          0.7392822              20.1169
      -------------------------------------------------------------
                  HL-Gap            0.0281121 Eh            0.7650 eV
             Fermi-level           -0.3837776 Eh          -10.4431 eV

 SCC (total)                   0 d,  0 h,  0 min,  0.008 sec
 SCC setup                      ...        0 min,  0.000 sec (  1.713%)
 Dispersion                     ...        0 min,  0.000 sec (  0.791%)
 integral evaluation            ...        0 min,  0.001 sec ( 14.145%)
 zeroth order Hamiltonian       ...        0 min,  0.000 sec (  0.408%)
 iterations                     ...        0 min,  0.004 sec ( 54.199%)
 molecular gradient             ...        0 min,  0.002 sec ( 25.984%)
 printout                       ...        0 min,  0.000 sec (  2.290%)

         :::::::::::::::::::::::::::::::::::::::::::::::::::::
         ::                     SUMMARY                     ::
         :::::::::::::::::::::::::::::::::::::::::::::::::::::
         :: total energy              -20.866869222889 Eh   ::
         :: gradient norm               0.009203156588 Eh/α ::
         :: HOMO-LUMO gap               0.764969410071 eV   ::
         ::.................................................::
         :: SCC energy                -21.099191160142 Eh   ::
         :: -> isotropic ES             0.027626945594 Eh   ::
         :: -> anisotropic ES           0.003576914578 Eh   ::
         :: -> anisotropic XC           0.029712320733 Eh   ::
         :: -> dispersion              -0.006057849182 Eh   ::
         :: repulsion energy            0.232318810873 Eh   ::
         :: add. restraining            0.000000000000 Eh   ::
         :::::::::::::::::::::::::::::::::::::::::::::::::::::

           -------------------------------------------------
          |                Property Printout                |
           -------------------------------------------------

    * Orbital Energies and Occupations

         #    Occupation            Energy/Eh            Energy/eV
      -------------------------------------------------------------
         1        2.0000           -0.7595582             -20.6686
       ...           ...                  ...                  ...
         6        2.0000           -0.6536608             -17.7870
         7        2.0000           -0.6269099             -17.0591
         8        2.0000           -0.6157561             -16.7556
         9        2.0000           -0.5843341             -15.9005
        10        2.0000           -0.5794014             -15.7663
        11        2.0000           -0.5531773             -15.0527
        12        2.0000           -0.5398746             -14.6907
        13        2.0000           -0.5320679             -14.4783
        14        2.0000           -0.5024101             -13.6713
        15        2.0000           -0.4953473             -13.4791
        16        2.0000           -0.4564066             -12.4195
        17        2.0000           -0.4398235             -11.9682
        18        2.0000           -0.3978336             -10.8256 (HOMO)
        19        0.0000           -0.3697215             -10.0606 (LUMO)
        20                         -0.2930709              -7.9749
        21                         -0.2874543              -7.8220
        22                         -0.1998529              -5.4383
        23                          0.0010924               0.0297
        24                          0.0522145               1.4208
        25                          0.0944892               2.5712
        26                          0.2170068               5.9051
        27                          0.3183805               8.6636
        28                          0.4042091              10.9991
        29                          0.5446407              14.8204
        30                          0.7392822              20.1169
      -------------------------------------------------------------
                  HL-Gap            0.0281121 Eh            0.7650 eV
             Fermi-level           -0.3837776 Eh          -10.4431 eV

   #   Z        covCN         q      C6AA      α(0)
   1   7 N      1.778    -0.272    27.884     7.820
   2   6 C      2.830     0.163    24.473     8.106
   3   7 N      2.306     0.218    17.856     6.273
   4   7 N      0.985    -0.132    23.474     6.968
   5   8 O      1.341    -0.272    18.895     5.848
   6   7 N      1.861     0.035    21.301     6.841
   7   6 C      2.858    -0.002    28.077     8.685
   8   1 H      0.860     0.177     1.229     1.737
   9   1 H      0.926     0.084     1.934     2.175

 Mol. C6AA /au·bohr⁶  :       1295.495716
 Mol. C8AA /au·bohr⁸  :      29616.845970
 Mol. α(0) /au        :         54.453126


Wiberg/Mayer (AO) data.
largest (>0.10) Wiberg bond orders for each atom
          total WBO             WBO to atom ...
     1  N   3.103        C    2 1.784    H    8 0.936    N    4 0.123
     2  C   3.953        N    1 1.784    C    7 1.120    N    3 0.932
     3  N   3.784        N    4 2.304    C    2 0.932    O    5 0.373
     4  N   2.830        N    3 2.304    O    5 0.266    N    1 0.123
     5  O   2.270        N    6 1.317    N    3 0.373    N    4 0.266    C    7 0.179
     6  N   3.226        C    7 1.623    O    5 1.317
     7  C   3.967        N    6 1.623    C    2 1.120    H    9 0.960    O    5 0.179
     8  H   0.969        N    1 0.936
     9  H   0.993        C    7 0.960

molecular dipole:
                 x           y           z       tot (Debye)
 q only:       -0.073       0.866       0.025
   full:       -0.234       0.874      -0.054       2.305
molecular quadrupole (traceless):
                xx          xy          yy          xz          yz          zz
 q only:        4.327       0.873      -7.739       1.030      -0.016       3.412
  q+dip:        4.811       0.899     -10.088       0.417      -0.167       5.278
   full:        4.160       0.779     -10.964      -0.853      -0.338       6.805


           -------------------------------------------------
          | TOTAL ENERGY              -20.866869222889 Eh   |
          | GRADIENT NORM               0.009203156588 Eh/α |
          | HOMO-LUMO GAP               0.764969410071 eV   |
           -------------------------------------------------

------------------------------------------------------------------------
 * finished run on 2021/06/02 at 10:00:07.126     
------------------------------------------------------------------------
 total:
 * wall-time:     0 d,  0 h,  0 min,  0.015 sec
 *  cpu-time:     0 d,  0 h,  0 min,  0.015 sec
 * ratio c/w:     0.986 speedup
 SCF:
 * wall-time:     0 d,  0 h,  0 min,  0.008 sec
 *  cpu-time:     0 d,  0 h,  0 min,  0.008 sec
 * ratio c/w:     1.000 speedup

