      -----------------------------------------------------------      
     |                   =====================                   |     
     |                           x T B                           |     
     |                   =====================                   |     
     |                         S. Grimme                         |     
     |          Mulliken Center for Theoretical Chemistry        |     
     |                    University of Bonn                     |     
     |                 Version 6.1.4 (SAW190525)                 |     
      -----------------------------------------------------------      

   This program is distributed in the hope that it will be useful,
   but WITHOUT ANY WARRANTY; without even the implied warranty of
   MERCHANTABILITY or FITNESS FOR A PARTICULAR PURPOSE.
   
   FOR NON-COMMERCIAL, ACADEMIA USE ONLY.
   
   Cite this work as:
   S. Grimme, C. Bannwarth, P. Shushkov, J. Comput. Theory Chem., 2017,
   13, 1989-2009. DOI: 10.1021/acs.jctc.7b00118
   C. Bannwarth, S. Ehlert and S. Grimme., J. Comput. Theory Chem., 2019,
   just accepted. DOI: 10.1021/acs.jctc.8b01176
   
   for sTDA-xTB:
   S. Grimme and C. Bannwarth, J. Chem. Phys., 2016, 145, 054103.
   DOI: 10.1063/1.4959605
   
   in the mass-spec context:
   V. Asgeirsson, C. Bauer and S. Grimme, Chem. Sci., 2017, 8, 4879.
   DOI: 10.1039/c7sc00601b
   
   for metadynamics refer to:
   S. Grimme, J. Chem. Theory Comput. Article ASAP, 2019,
   DOI: 10.1021/acs.jctc.9b00143
   
   with help from (in alphabetical order)
   C. Bannwarth, F. Bohle, G. Brandenburg, E. Caldeweyher, M. Checinski,
   S. Dohm, S. Ehlert, S. Ehrlich, F. März, H. Neugebauer, J. Pisarek,
   P. Pracht, P. Shushkov, and S. Spicher.
   
 * started run on 2021/06/02 at 10:00:07.070     

           -------------------------------------------------
          |                Calculation Setup                |
           -------------------------------------------------

          program call               : /groups/kemi/koerstz/opt/xtb/6.1/bin/xtb 50.xyz --gfn2 --acc 0.2 --chrg 0
          hostname                   : node305
          coordinate file            : 50.xyz
          omp threads                :                     1
          number of atoms            :                     9
          number of electrons        :                    36
          charge                     :                     0
          spin                       :                   0.0
          first test random number   :      0.52736178498052


########################################################################
# WARNING! Please study the warnings concerning your input carefully
#  - XTBPATH is not set, using XTBHOME instead
########################################################################

           ------------------------------------------------- 
          |                 G F N 2 - x T B                 |
          | Geometry, Frequencies, Noncovalent interactions |
          |            JCTC 2018 parametrisation            |
           ------------------------------------------------- 
             k(s)              :                1.8500
             k(p)              :                2.2300
             k(d)              :                2.2300
             k(f)              :                2.0000
             kEN (H0ij)        :               -2.0000
             D4 a1             :                0.5200
             D4 a2             :                5.0000
             D4 s6             :                1.0000
             D4 s8             :                2.7000
             D4 s9             :                5.0000
             alphaj            :                2.0000

  Z AO/shell   Hii/eV     exponent
  1     Wed Apr 25 08:07:45 CEST 2018   EN: 2.200 GM2: 0.406  GM3: 0.0800  RAES: 1.40
     1s    -10.707211    1.230000
  6     Wed Apr 25 08:07:45 CEST 2018   EN: 2.550 GM2: 0.538  GM3: 0.1500  RAES: 3.00
     2s    -13.970922    2.096432
     2p    -10.063292    1.800000
  7     Wed Apr 25 08:07:45 CEST 2018   EN: 3.040 GM2: 0.461  GM3:-0.0640  RAES: 1.90
     2s    -16.686243    2.339881
     2p    -12.523956    2.014332
  8     Wed Apr 25 08:07:45 CEST 2018   EN: 3.440 GM2: 0.452  GM3:-0.0517  RAES: 1.80
     2s    -20.229985    2.439742
     2p    -15.503117    2.137023


            Z     q(EN)     CN     RAES       Cart. coordinates
     1  N   5.0   -0.32    3.01    1.93    -0.44772    -1.34787    -2.37525
     2  C   4.0    0.27    3.07    3.02    -0.81451    -2.12434     0.19054
     3  N   5.0   -0.15    2.01    1.90    -2.83543    -3.06097     1.05671
     4  N   5.0   -0.16    1.01    1.90    -4.61247    -3.75003     2.06234
     5  O   6.0    0.01    2.01    1.83     2.23207    -0.71376    -2.44512
     6  N   5.0   -0.22    2.06    1.90     3.29791    -1.19878    -0.18434
     7  C   4.0    0.12    3.06    3.02     1.64885    -2.02624     1.36561
     8  H   1.0    0.28    1.00    1.43    -1.40958     0.24245    -2.88645
     9  H   1.0    0.17    1.00    1.43     2.09299    -2.52186     3.27461

           ------------------------------------------------- 
          |        Self-Consistent Charge Iterations        |
           ------------------------------------------------- 
q/qsh data taken from xtbrestart
CAMM data taken from xtbrestart

          ...................................................
          :                      SETUP                      :
          :.................................................:
          :  # basis functions                  30          :
          :  # atomic orbitals                  30          :
          :  # shells                           16          :
          :  # electrons                        36          :
          :  max. iterations                   250          :
          :  Hamiltonian                  GFN2-xTB          :
          :  restarted?                       true          :
          :  GBSA solvation                  false          :
          :  PC potential                    false          :
          :  electronic temp.          300.0000000     K    :
          :  accuracy                    0.2000000          :
          :  -> integral cutoff          0.3198970E+02      :
          :  -> integral neglect         0.2000000E-08      :
          :  -> SCF convergence          0.2000000E-06 Eh   :
          :  -> wf. convergence          0.2000000E-04 e    :
          :  Broyden damping             0.4000000          :
          ...................................................

 iter      E             dE          RMSdq      gap      omega  full diag
   1    -21.0961884 -0.210962E+02  0.250E+00    1.41       0.0  T
   2    -21.0967186 -0.530229E-03  0.149E+00    1.01       1.0  T
   3    -21.0887350  0.798364E-02  0.137E+00    1.41       1.0  T
   4    -21.1023038 -0.135688E-01  0.199E-01    1.14       1.0  T
   5    -21.1024868 -0.183001E-03  0.728E-02    1.13       1.0  T
   6    -21.1024960 -0.925988E-05  0.387E-02    1.12       1.0  T
   7    -21.1024995 -0.343003E-05  0.854E-03    1.12       3.9  T
   8    -21.1024997 -0.229413E-06  0.349E-03    1.12       9.6  T
   9    -21.1024997 -0.125002E-07  0.180E-03    1.12      18.6  T
  10    -21.1024997 -0.543918E-08  0.531E-04    1.12      62.8  T
  11    -21.1024997 -0.253561E-09  0.157E-04    1.12     211.8  T
  12    -21.1024997 -0.625988E-10  0.596E-05    1.12     559.5  T

   *** convergence criteria satisfied after 12 iterations ***

         #    Occupation            Energy/Eh            Energy/eV
      -------------------------------------------------------------
         1        2.0000           -0.7702711             -20.9601
       ...           ...                  ...                  ...
        12        2.0000           -0.5354619             -14.5707
        13        2.0000           -0.5211291             -14.1806
        14        2.0000           -0.4923450             -13.3974
        15        2.0000           -0.4778410             -13.0027
        16        2.0000           -0.4675640             -12.7231
        17        2.0000           -0.4428734             -12.0512
        18        2.0000           -0.3623991              -9.8614 (HOMO)
        19                         -0.3211314              -8.7384 (LUMO)
        20                         -0.2812539              -7.6533
        21                         -0.1846043              -5.0233
        22                         -0.1406760              -3.8280
        23                         -0.0163294              -0.4443
       ...                                ...                  ...
        30                          1.0002907              27.2193
      -------------------------------------------------------------
                  HL-Gap            0.0412677 Eh            1.1230 eV
             Fermi-level           -0.3417653 Eh           -9.2999 eV

 SCC (total)                   0 d,  0 h,  0 min,  0.007 sec
 SCC setup                      ...        0 min,  0.000 sec (  1.756%)
 Dispersion                     ...        0 min,  0.000 sec (  0.807%)
 integral evaluation            ...        0 min,  0.001 sec ( 15.024%)
 zeroth order Hamiltonian       ...        0 min,  0.000 sec (  0.510%)
 iterations                     ...        0 min,  0.004 sec ( 52.093%)
 molecular gradient             ...        0 min,  0.002 sec ( 27.073%)
 printout                       ...        0 min,  0.000 sec (  2.252%)

         :::::::::::::::::::::::::::::::::::::::::::::::::::::
         ::                     SUMMARY                     ::
         :::::::::::::::::::::::::::::::::::::::::::::::::::::
         :: total energy              -20.875541074953 Eh   ::
         :: gradient norm               0.003092064391 Eh/α ::
         :: HOMO-LUMO gap               1.122951591986 eV   ::
         ::.................................................::
         :: SCC energy                -21.102499715042 Eh   ::
         :: -> isotropic ES             0.014438291498 Eh   ::
         :: -> anisotropic ES           0.004200583143 Eh   ::
         :: -> anisotropic XC           0.031376602080 Eh   ::
         :: -> dispersion              -0.005837465062 Eh   ::
         :: repulsion energy            0.226955489947 Eh   ::
         :: add. restraining            0.000000000000 Eh   ::
         :::::::::::::::::::::::::::::::::::::::::::::::::::::

           -------------------------------------------------
          |                Property Printout                |
           -------------------------------------------------

    * Orbital Energies and Occupations

         #    Occupation            Energy/Eh            Energy/eV
      -------------------------------------------------------------
         1        2.0000           -0.7702711             -20.9601
       ...           ...                  ...                  ...
         6        2.0000           -0.6494829             -17.6733
         7        2.0000           -0.6171551             -16.7936
         8        2.0000           -0.6083238             -16.5533
         9        2.0000           -0.5848154             -15.9136
        10        2.0000           -0.5829193             -15.8620
        11        2.0000           -0.5752074             -15.6522
        12        2.0000           -0.5354619             -14.5707
        13        2.0000           -0.5211291             -14.1806
        14        2.0000           -0.4923450             -13.3974
        15        2.0000           -0.4778410             -13.0027
        16        2.0000           -0.4675640             -12.7231
        17        2.0000           -0.4428734             -12.0512
        18        2.0000           -0.3623991              -9.8614 (HOMO)
        19                         -0.3211314              -8.7384 (LUMO)
        20                         -0.2812539              -7.6533
        21                         -0.1846043              -5.0233
        22                         -0.1406760              -3.8280
        23                         -0.0163294              -0.4443
        24                          0.0189397               0.5154
        25                          0.1105924               3.0094
        26                          0.1719234               4.6783
        27                          0.2062402               5.6121
        28                          0.3634499               9.8900
        29                          0.4919004              13.3853
        30                          1.0002907              27.2193
      -------------------------------------------------------------
                  HL-Gap            0.0412677 Eh            1.1230 eV
             Fermi-level           -0.3417653 Eh           -9.2999 eV

   #   Z        covCN         q      C6AA      α(0)
   1   7 N      2.707    -0.119    23.596     7.214
   2   6 C      2.861     0.050    26.869     8.496
   3   7 N      1.897     0.152    19.290     6.511
   4   7 N      0.987    -0.159    24.037     7.050
   5   8 O      1.855    -0.138    16.363     5.463
   6   7 N      1.891    -0.066    23.250     7.148
   7   6 C      2.875     0.043    27.033     8.523
   8   1 H      0.860     0.171     1.264     1.761
   9   1 H      0.927     0.066     2.132     2.283

 Mol. C6AA /au·bohr⁶  :       1290.515940
 Mol. C8AA /au·bohr⁸  :      29522.507742
 Mol. α(0) /au        :         54.451570


Wiberg/Mayer (AO) data.
largest (>0.10) Wiberg bond orders for each atom
          total WBO             WBO to atom ...
     1  N   3.124        C    2 1.009    O    5 0.938    H    8 0.936
     2  C   3.898        N    3 1.406    C    7 1.106    N    1 1.009    N    4 0.313
     3  N   3.759        N    4 2.195    C    2 1.406
     4  N   2.835        N    3 2.195    C    2 0.313    N    6 0.119
     5  O   2.227        N    6 1.086    N    1 0.938    C    7 0.104
     6  N   3.095        C    7 1.718    O    5 1.086    N    4 0.119
     7  C   3.977        N    6 1.718    C    2 1.106    H    9 0.962    O    5 0.104
     8  H   0.971        N    1 0.936
     9  H   0.996        C    7 0.962

molecular dipole:
                 x           y           z       tot (Debye)
 q only:       -0.241       0.152       0.253
   full:       -0.380       0.399       0.366       1.682
molecular quadrupole (traceless):
                xx          xy          yy          xz          yz          zz
 q only:       -2.733      -2.236       0.935       4.442      -1.049       1.798
  q+dip:       -5.917      -4.431       2.904       6.446      -1.697       3.014
   full:       -6.374      -4.885       3.051       7.137      -1.591       3.323


           -------------------------------------------------
          | TOTAL ENERGY              -20.875541074953 Eh   |
          | GRADIENT NORM               0.003092064391 Eh/α |
          | HOMO-LUMO GAP               1.122951591986 eV   |
           -------------------------------------------------

------------------------------------------------------------------------
 * finished run on 2021/06/02 at 10:00:07.085     
------------------------------------------------------------------------
 total:
 * wall-time:     0 d,  0 h,  0 min,  0.014 sec
 *  cpu-time:     0 d,  0 h,  0 min,  0.014 sec
 * ratio c/w:     0.983 speedup
 SCF:
 * wall-time:     0 d,  0 h,  0 min,  0.007 sec
 *  cpu-time:     0 d,  0 h,  0 min,  0.007 sec
 * ratio c/w:     0.996 speedup

