      -----------------------------------------------------------      
     |                   =====================                   |     
     |                           x T B                           |     
     |                   =====================                   |     
     |                         S. Grimme                         |     
     |          Mulliken Center for Theoretical Chemistry        |     
     |                    University of Bonn                     |     
     |                 Version 6.1.4 (SAW190525)                 |     
      -----------------------------------------------------------      

   This program is distributed in the hope that it will be useful,
   but WITHOUT ANY WARRANTY; without even the implied warranty of
   MERCHANTABILITY or FITNESS FOR A PARTICULAR PURPOSE.
   
   FOR NON-COMMERCIAL, ACADEMIA USE ONLY.
   
   Cite this work as:
   S. Grimme, C. Bannwarth, P. Shushkov, J. Comput. Theory Chem., 2017,
   13, 1989-2009. DOI: 10.1021/acs.jctc.7b00118
   C. Bannwarth, S. Ehlert and S. Grimme., J. Comput. Theory Chem., 2019,
   just accepted. DOI: 10.1021/acs.jctc.8b01176
   
   for sTDA-xTB:
   S. Grimme and C. Bannwarth, J. Chem. Phys., 2016, 145, 054103.
   DOI: 10.1063/1.4959605
   
   in the mass-spec context:
   V. Asgeirsson, C. Bauer and S. Grimme, Chem. Sci., 2017, 8, 4879.
   DOI: 10.1039/c7sc00601b
   
   for metadynamics refer to:
   S. Grimme, J. Chem. Theory Comput. Article ASAP, 2019,
   DOI: 10.1021/acs.jctc.9b00143
   
   with help from (in alphabetical order)
   C. Bannwarth, F. Bohle, G. Brandenburg, E. Caldeweyher, M. Checinski,
   S. Dohm, S. Ehlert, S. Ehrlich, F. März, H. Neugebauer, J. Pisarek,
   P. Pracht, P. Shushkov, and S. Spicher.
   
 * started run on 2021/06/02 at 10:00:06.490     

           -------------------------------------------------
          |                Calculation Setup                |
           -------------------------------------------------

          program call               : /groups/kemi/koerstz/opt/xtb/6.1/bin/xtb 51.xyz --gfn2 --acc 0.2 --chrg 0
          hostname                   : node305
          coordinate file            : 51.xyz
          omp threads                :                     1
          number of atoms            :                     9
          number of electrons        :                    36
          charge                     :                     0
          spin                       :                   0.0
          first test random number   :      0.15340084118725


########################################################################
# WARNING! Please study the warnings concerning your input carefully
#  - XTBPATH is not set, using XTBHOME instead
########################################################################

           ------------------------------------------------- 
          |                 G F N 2 - x T B                 |
          | Geometry, Frequencies, Noncovalent interactions |
          |            JCTC 2018 parametrisation            |
           ------------------------------------------------- 
             k(s)              :                1.8500
             k(p)              :                2.2300
             k(d)              :                2.2300
             k(f)              :                2.0000
             kEN (H0ij)        :               -2.0000
             D4 a1             :                0.5200
             D4 a2             :                5.0000
             D4 s6             :                1.0000
             D4 s8             :                2.7000
             D4 s9             :                5.0000
             alphaj            :                2.0000

  Z AO/shell   Hii/eV     exponent
  1     Wed Apr 25 08:07:45 CEST 2018   EN: 2.200 GM2: 0.406  GM3: 0.0800  RAES: 1.40
     1s    -10.707211    1.230000
  6     Wed Apr 25 08:07:45 CEST 2018   EN: 2.550 GM2: 0.538  GM3: 0.1500  RAES: 3.00
     2s    -13.970922    2.096432
     2p    -10.063292    1.800000
  7     Wed Apr 25 08:07:45 CEST 2018   EN: 3.040 GM2: 0.461  GM3:-0.0640  RAES: 1.90
     2s    -16.686243    2.339881
     2p    -12.523956    2.014332
  8     Wed Apr 25 08:07:45 CEST 2018   EN: 3.440 GM2: 0.452  GM3:-0.0517  RAES: 1.80
     2s    -20.229985    2.439742
     2p    -15.503117    2.137023


            Z     q(EN)     CN     RAES       Cart. coordinates
     1  N   5.0   -0.32    3.01    1.93    -0.44726    -1.35221    -2.37567
     2  C   4.0    0.27    3.07    3.02    -0.80858    -2.14016     0.18705
     3  N   5.0   -0.15    2.01    1.90    -2.83768    -3.04077     1.06842
     4  N   5.0   -0.16    1.01    1.90    -4.61915    -3.75137     2.05035
     5  O   6.0    0.01    2.01    1.83     2.23150    -0.70927    -2.44383
     6  N   5.0   -0.22    2.06    1.90     3.29800    -1.19107    -0.18354
     7  C   4.0    0.12    3.06    3.02     1.65273    -2.02869     1.36470
     8  H   1.0    0.28    1.00    1.43    -1.41497     0.23653    -2.88272
     9  H   1.0    0.17    1.00    1.43     2.09752    -2.52441     3.27386

           ------------------------------------------------- 
          |        Self-Consistent Charge Iterations        |
           ------------------------------------------------- 
q/qsh data taken from xtbrestart
CAMM data taken from xtbrestart

          ...................................................
          :                      SETUP                      :
          :.................................................:
          :  # basis functions                  30          :
          :  # atomic orbitals                  30          :
          :  # shells                           16          :
          :  # electrons                        36          :
          :  max. iterations                   250          :
          :  Hamiltonian                  GFN2-xTB          :
          :  restarted?                       true          :
          :  GBSA solvation                  false          :
          :  PC potential                    false          :
          :  electronic temp.          300.0000000     K    :
          :  accuracy                    0.2000000          :
          :  -> integral cutoff          0.3198970E+02      :
          :  -> integral neglect         0.2000000E-08      :
          :  -> SCF convergence          0.2000000E-06 Eh   :
          :  -> wf. convergence          0.2000000E-04 e    :
          :  Broyden damping             0.4000000          :
          ...................................................

 iter      E             dE          RMSdq      gap      omega  full diag
   1    -20.8310811 -0.208311E+02  0.650E+00    0.18       0.0  T
   2    -20.9419252 -0.110844E+00  0.533E+00    2.52       1.0  T
   3    -21.0919275 -0.150002E+00  0.293E+00    1.37       1.0  T
   4    -21.0993833 -0.745584E-02  0.153E+00    1.29       1.0  T
   5    -21.0999958 -0.612474E-03  0.588E-01    1.01       1.0  T
   6    -21.1027202 -0.272438E-02  0.172E-01    1.11       1.0  T
   7    -21.1028171 -0.969297E-04  0.998E-02    1.12       1.0  T
   8    -21.1028238 -0.662850E-05  0.363E-02    1.12       1.0  T
   9    -21.1028285 -0.478856E-05  0.150E-02    1.12       2.2  T
  10    -21.1028292 -0.693062E-06  0.673E-03    1.12       5.0  T
  11    -21.1028293 -0.556212E-07  0.172E-03    1.12      19.4  T
  12    -21.1028293 -0.364779E-08  0.906E-04    1.12      36.8  T
  13    -21.1028293 -0.237051E-08  0.381E-04    1.12      87.4  T
  14    -21.1028293 -0.758156E-09  0.104E-04    1.12     320.1  T
  15    -21.1028293 -0.112159E-10  0.243E-05    1.12    1371.9  T

   *** convergence criteria satisfied after 15 iterations ***

         #    Occupation            Energy/Eh            Energy/eV
      -------------------------------------------------------------
         1        2.0000           -0.7701939             -20.9580
       ...           ...                  ...                  ...
        12        2.0000           -0.5355127             -14.5720
        13        2.0000           -0.5211251             -14.1805
        14        2.0000           -0.4924837             -13.4012
        15        2.0000           -0.4776248             -12.9968
        16        2.0000           -0.4676536             -12.7255
        17        2.0000           -0.4427586             -12.0481
        18        2.0000           -0.3623141              -9.8591 (HOMO)
        19                         -0.3212101              -8.7406 (LUMO)
        20                         -0.2810060              -7.6466
        21                         -0.1839991              -5.0069
        22                         -0.1410141              -3.8372
        23                         -0.0158558              -0.4315
       ...                                ...                  ...
        30                          1.0051030              27.3502
      -------------------------------------------------------------
                  HL-Gap            0.0411039 Eh            1.1185 eV
             Fermi-level           -0.3417621 Eh           -9.2998 eV

 SCC (total)                   0 d,  0 h,  0 min,  0.008 sec
 SCC setup                      ...        0 min,  0.000 sec (  1.621%)
 Dispersion                     ...        0 min,  0.000 sec (  0.719%)
 integral evaluation            ...        0 min,  0.001 sec ( 13.844%)
 zeroth order Hamiltonian       ...        0 min,  0.000 sec (  0.420%)
 iterations                     ...        0 min,  0.004 sec ( 54.932%)
 molecular gradient             ...        0 min,  0.002 sec ( 25.354%)
 printout                       ...        0 min,  0.000 sec (  2.688%)

         :::::::::::::::::::::::::::::::::::::::::::::::::::::
         ::                     SUMMARY                     ::
         :::::::::::::::::::::::::::::::::::::::::::::::::::::
         :: total energy              -20.875566297631 Eh   ::
         :: gradient norm               0.002561164557 Eh/α ::
         :: HOMO-LUMO gap               1.118495192425 eV   ::
         ::.................................................::
         :: SCC energy                -21.102829301058 Eh   ::
         :: -> isotropic ES             0.014442447503 Eh   ::
         :: -> anisotropic ES           0.004239575622 Eh   ::
         :: -> anisotropic XC           0.031433727871 Eh   ::
         :: -> dispersion              -0.005837102418 Eh   ::
         :: repulsion energy            0.227259856922 Eh   ::
         :: add. restraining            0.000000000000 Eh   ::
         :::::::::::::::::::::::::::::::::::::::::::::::::::::

           -------------------------------------------------
          |                Property Printout                |
           -------------------------------------------------

    * Orbital Energies and Occupations

         #    Occupation            Energy/Eh            Energy/eV
      -------------------------------------------------------------
         1        2.0000           -0.7701939             -20.9580
       ...           ...                  ...                  ...
         6        2.0000           -0.6495274             -17.6745
         7        2.0000           -0.6173001             -16.7976
         8        2.0000           -0.6081167             -16.5477
         9        2.0000           -0.5850193             -15.9192
        10        2.0000           -0.5830228             -15.8649
        11        2.0000           -0.5751518             -15.6507
        12        2.0000           -0.5355127             -14.5720
        13        2.0000           -0.5211251             -14.1805
        14        2.0000           -0.4924837             -13.4012
        15        2.0000           -0.4776248             -12.9968
        16        2.0000           -0.4676536             -12.7255
        17        2.0000           -0.4427586             -12.0481
        18        2.0000           -0.3623141              -9.8591 (HOMO)
        19                         -0.3212101              -8.7406 (LUMO)
        20                         -0.2810060              -7.6466
        21                         -0.1839991              -5.0069
        22                         -0.1410141              -3.8372
        23                         -0.0158558              -0.4315
        24                          0.0189796               0.5165
        25                          0.1094673               2.9788
        26                          0.1724072               4.6914
        27                          0.2059154               5.6032
        28                          0.3637975               9.8994
        29                          0.4920717              13.3900
        30                          1.0051030              27.3502
      -------------------------------------------------------------
                  HL-Gap            0.0411039 Eh            1.1185 eV
             Fermi-level           -0.3417621 Eh           -9.2998 eV

   #   Z        covCN         q      C6AA      α(0)
   1   7 N      2.707    -0.119    23.599     7.215
   2   6 C      2.861     0.051    26.859     8.495
   3   7 N      1.897     0.152    19.290     6.511
   4   7 N      0.987    -0.159    24.032     7.049
   5   8 O      1.855    -0.138    16.363     5.463
   6   7 N      1.891    -0.066    23.250     7.148
   7   6 C      2.874     0.043    27.037     8.524
   8   1 H      0.860     0.171     1.266     1.763
   9   1 H      0.927     0.066     2.133     2.284

 Mol. C6AA /au·bohr⁶  :       1290.539822
 Mol. C8AA /au·bohr⁸  :      29522.468526
 Mol. α(0) /au        :         54.452147


Wiberg/Mayer (AO) data.
largest (>0.10) Wiberg bond orders for each atom
          total WBO             WBO to atom ...
     1  N   3.124        C    2 1.008    O    5 0.937    H    8 0.936
     2  C   3.899        N    3 1.407    C    7 1.106    N    1 1.008    N    4 0.313
     3  N   3.760        N    4 2.195    C    2 1.407
     4  N   2.835        N    3 2.195    C    2 0.313    N    6 0.119
     5  O   2.227        N    6 1.087    N    1 0.937    C    7 0.105
     6  N   3.095        C    7 1.718    O    5 1.087    N    4 0.119
     7  C   3.977        N    6 1.718    C    2 1.106    H    9 0.962    O    5 0.105
     8  H   0.971        N    1 0.936
     9  H   0.996        C    7 0.962

molecular dipole:
                 x           y           z       tot (Debye)
 q only:       -0.242       0.152       0.259
   full:       -0.383       0.399       0.375       1.699
molecular quadrupole (traceless):
                xx          xy          yy          xz          yz          zz
 q only:       -2.730      -2.251       0.921       4.421      -1.059       1.809
  q+dip:       -5.902      -4.460       2.875       6.415      -1.720       3.028
   full:       -6.367      -4.917       3.023       7.103      -1.617       3.344


           -------------------------------------------------
          | TOTAL ENERGY              -20.875566297631 Eh   |
          | GRADIENT NORM               0.002561164557 Eh/α |
          | HOMO-LUMO GAP               1.118495192425 eV   |
           -------------------------------------------------

------------------------------------------------------------------------
 * finished run on 2021/06/02 at 10:00:06.505     
------------------------------------------------------------------------
 total:
 * wall-time:     0 d,  0 h,  0 min,  0.015 sec
 *  cpu-time:     0 d,  0 h,  0 min,  0.015 sec
 * ratio c/w:     0.986 speedup
 SCF:
 * wall-time:     0 d,  0 h,  0 min,  0.008 sec
 *  cpu-time:     0 d,  0 h,  0 min,  0.008 sec
 * ratio c/w:     1.000 speedup

