      -----------------------------------------------------------      
     |                   =====================                   |     
     |                           x T B                           |     
     |                   =====================                   |     
     |                         S. Grimme                         |     
     |          Mulliken Center for Theoretical Chemistry        |     
     |                    University of Bonn                     |     
     |                 Version 6.1.4 (SAW190525)                 |     
      -----------------------------------------------------------      

   This program is distributed in the hope that it will be useful,
   but WITHOUT ANY WARRANTY; without even the implied warranty of
   MERCHANTABILITY or FITNESS FOR A PARTICULAR PURPOSE.
   
   FOR NON-COMMERCIAL, ACADEMIA USE ONLY.
   
   Cite this work as:
   S. Grimme, C. Bannwarth, P. Shushkov, J. Comput. Theory Chem., 2017,
   13, 1989-2009. DOI: 10.1021/acs.jctc.7b00118
   C. Bannwarth, S. Ehlert and S. Grimme., J. Comput. Theory Chem., 2019,
   just accepted. DOI: 10.1021/acs.jctc.8b01176
   
   for sTDA-xTB:
   S. Grimme and C. Bannwarth, J. Chem. Phys., 2016, 145, 054103.
   DOI: 10.1063/1.4959605
   
   in the mass-spec context:
   V. Asgeirsson, C. Bauer and S. Grimme, Chem. Sci., 2017, 8, 4879.
   DOI: 10.1039/c7sc00601b
   
   for metadynamics refer to:
   S. Grimme, J. Chem. Theory Comput. Article ASAP, 2019,
   DOI: 10.1021/acs.jctc.9b00143
   
   with help from (in alphabetical order)
   C. Bannwarth, F. Bohle, G. Brandenburg, E. Caldeweyher, M. Checinski,
   S. Dohm, S. Ehlert, S. Ehrlich, F. März, H. Neugebauer, J. Pisarek,
   P. Pracht, P. Shushkov, and S. Spicher.
   
 * started run on 2021/06/02 at 10:00:06.950     

           -------------------------------------------------
          |                Calculation Setup                |
           -------------------------------------------------

          program call               : /groups/kemi/koerstz/opt/xtb/6.1/bin/xtb 52.xyz --gfn2 --acc 0.2 --chrg 0
          hostname                   : node305
          coordinate file            : 52.xyz
          omp threads                :                     1
          number of atoms            :                     9
          number of electrons        :                    36
          charge                     :                     0
          spin                       :                   0.0
          first test random number   :      0.67327572322843


########################################################################
# WARNING! Please study the warnings concerning your input carefully
#  - XTBPATH is not set, using XTBHOME instead
########################################################################

           ------------------------------------------------- 
          |                 G F N 2 - x T B                 |
          | Geometry, Frequencies, Noncovalent interactions |
          |            JCTC 2018 parametrisation            |
           ------------------------------------------------- 
             k(s)              :                1.8500
             k(p)              :                2.2300
             k(d)              :                2.2300
             k(f)              :                2.0000
             kEN (H0ij)        :               -2.0000
             D4 a1             :                0.5200
             D4 a2             :                5.0000
             D4 s6             :                1.0000
             D4 s8             :                2.7000
             D4 s9             :                5.0000
             alphaj            :                2.0000

  Z AO/shell   Hii/eV     exponent
  1     Wed Apr 25 08:07:45 CEST 2018   EN: 2.200 GM2: 0.406  GM3: 0.0800  RAES: 1.40
     1s    -10.707211    1.230000
  6     Wed Apr 25 08:07:45 CEST 2018   EN: 2.550 GM2: 0.538  GM3: 0.1500  RAES: 3.00
     2s    -13.970922    2.096432
     2p    -10.063292    1.800000
  7     Wed Apr 25 08:07:45 CEST 2018   EN: 3.040 GM2: 0.461  GM3:-0.0640  RAES: 1.90
     2s    -16.686243    2.339881
     2p    -12.523956    2.014332
  8     Wed Apr 25 08:07:45 CEST 2018   EN: 3.440 GM2: 0.452  GM3:-0.0517  RAES: 1.80
     2s    -20.229985    2.439742
     2p    -15.503117    2.137023


            Z     q(EN)     CN     RAES       Cart. coordinates
     1  N   5.0   -0.32    3.01    1.93    -0.44448    -1.35490    -2.37255
     2  C   4.0    0.27    3.07    3.02    -0.80263    -2.15134     0.18674
     3  N   5.0   -0.15    2.01    1.90    -2.83713    -3.02894     1.07781
     4  N   5.0   -0.16    1.01    1.90    -4.62835    -3.74332     2.03931
     5  O   6.0    0.01    2.01    1.83     2.22883    -0.69687    -2.43932
     6  N   5.0   -0.22    2.06    1.90     3.29935    -1.18356    -0.18171
     7  C   4.0    0.12    3.06    3.02     1.65750    -2.03265     1.36424
     8  H   1.0    0.28    1.00    1.43    -1.42516     0.22284    -2.88766
     9  H   1.0    0.17    1.00    1.43     2.10417    -2.53267     3.27178

           ------------------------------------------------- 
          |        Self-Consistent Charge Iterations        |
           ------------------------------------------------- 
q/qsh data taken from xtbrestart
CAMM data taken from xtbrestart

          ...................................................
          :                      SETUP                      :
          :.................................................:
          :  # basis functions                  30          :
          :  # atomic orbitals                  30          :
          :  # shells                           16          :
          :  # electrons                        36          :
          :  max. iterations                   250          :
          :  Hamiltonian                  GFN2-xTB          :
          :  restarted?                       true          :
          :  GBSA solvation                  false          :
          :  PC potential                    false          :
          :  electronic temp.          300.0000000     K    :
          :  accuracy                    0.2000000          :
          :  -> integral cutoff          0.3198970E+02      :
          :  -> integral neglect         0.2000000E-08      :
          :  -> SCF convergence          0.2000000E-06 Eh   :
          :  -> wf. convergence          0.2000000E-04 e    :
          :  Broyden damping             0.4000000          :
          ...................................................

 iter      E             dE          RMSdq      gap      omega  full diag
   1    -20.9970047 -0.209970E+02  0.574E+00    1.04       0.0  T
   2    -21.0680007 -0.709959E-01  0.401E+00    2.09       1.0  T
   3    -21.0768717 -0.887103E-02  0.240E+00    1.13       1.0  T
   4    -21.0943679 -0.174962E-01  0.127E+00    1.40       1.0  T
   5    -21.1026641 -0.829623E-02  0.255E-01    1.11       1.0  T
   6    -21.1029787 -0.314583E-03  0.119E-01    1.12       1.0  T
   7    -21.1029922 -0.134364E-04  0.596E-02    1.12       1.0  T
   8    -21.1030077 -0.155154E-04  0.188E-02    1.11       1.8  T
   9    -21.1030086 -0.892642E-06  0.840E-03    1.11       4.0  T
  10    -21.1030090 -0.397080E-06  0.208E-03    1.11      16.1  T
  11    -21.1030090 -0.141390E-07  0.113E-03    1.11      29.5  T
  12    -21.1030090 -0.669617E-08  0.374E-04    1.11      89.1  T
  13    -21.1030090 -0.593705E-09  0.133E-04    1.11     249.8  T
  14    -21.1030090 -0.471516E-10  0.507E-05    1.11     657.1  T

   *** convergence criteria satisfied after 14 iterations ***

         #    Occupation            Energy/Eh            Energy/eV
      -------------------------------------------------------------
         1        2.0000           -0.7702390             -20.9593
       ...           ...                  ...                  ...
        12        2.0000           -0.5355210             -14.5723
        13        2.0000           -0.5211069             -14.1800
        14        2.0000           -0.4924562             -13.4004
        15        2.0000           -0.4776357             -12.9971
        16        2.0000           -0.4676837             -12.7263
        17        2.0000           -0.4426387             -12.0448
        18        2.0000           -0.3619709              -9.8497 (HOMO)
        19                         -0.3211747              -8.7396 (LUMO)
        20                         -0.2808640              -7.6427
        21                         -0.1836314              -4.9969
        22                         -0.1402471              -3.8163
        23                         -0.0156504              -0.4259
       ...                                ...                  ...
        30                          1.0069801              27.4013
      -------------------------------------------------------------
                  HL-Gap            0.0407962 Eh            1.1101 eV
             Fermi-level           -0.3415728 Eh           -9.2947 eV

 SCC (total)                   0 d,  0 h,  0 min,  0.007 sec
 SCC setup                      ...        0 min,  0.000 sec (  1.507%)
 Dispersion                     ...        0 min,  0.000 sec (  0.726%)
 integral evaluation            ...        0 min,  0.001 sec ( 14.826%)
 zeroth order Hamiltonian       ...        0 min,  0.000 sec (  0.330%)
 iterations                     ...        0 min,  0.004 sec ( 52.474%)
 molecular gradient             ...        0 min,  0.002 sec ( 27.282%)
 printout                       ...        0 min,  0.000 sec (  2.358%)

         :::::::::::::::::::::::::::::::::::::::::::::::::::::
         ::                     SUMMARY                     ::
         :::::::::::::::::::::::::::::::::::::::::::::::::::::
         :: total energy              -20.875578210846 Eh   ::
         :: gradient norm               0.001740582070 Eh/α ::
         :: HOMO-LUMO gap               1.110120725297 eV   ::
         ::.................................................::
         :: SCC energy                -21.103008994267 Eh   ::
         :: -> isotropic ES             0.014426058882 Eh   ::
         :: -> anisotropic ES           0.004265119794 Eh   ::
         :: -> anisotropic XC           0.031448798478 Eh   ::
         :: -> dispersion              -0.005836553698 Eh   ::
         :: repulsion energy            0.227427640171 Eh   ::
         :: add. restraining            0.000000000000 Eh   ::
         :::::::::::::::::::::::::::::::::::::::::::::::::::::

           -------------------------------------------------
          |                Property Printout                |
           -------------------------------------------------

    * Orbital Energies and Occupations

         #    Occupation            Energy/Eh            Energy/eV
      -------------------------------------------------------------
         1        2.0000           -0.7702390             -20.9593
       ...           ...                  ...                  ...
         6        2.0000           -0.6495680             -17.6756
         7        2.0000           -0.6174241             -16.8010
         8        2.0000           -0.6079119             -16.5421
         9        2.0000           -0.5850471             -15.9199
        10        2.0000           -0.5831127             -15.8673
        11        2.0000           -0.5751570             -15.6508
        12        2.0000           -0.5355210             -14.5723
        13        2.0000           -0.5211069             -14.1800
        14        2.0000           -0.4924562             -13.4004
        15        2.0000           -0.4776357             -12.9971
        16        2.0000           -0.4676837             -12.7263
        17        2.0000           -0.4426387             -12.0448
        18        2.0000           -0.3619709              -9.8497 (HOMO)
        19                         -0.3211747              -8.7396 (LUMO)
        20                         -0.2808640              -7.6427
        21                         -0.1836314              -4.9969
        22                         -0.1402471              -3.8163
        23                         -0.0156504              -0.4259
        24                          0.0190446               0.5182
        25                          0.1089883               2.9657
        26                          0.1732159               4.7134
        27                          0.2060580               5.6071
        28                          0.3644698               9.9177
        29                          0.4921025              13.3908
        30                          1.0069801              27.4013
      -------------------------------------------------------------
                  HL-Gap            0.0407962 Eh            1.1101 eV
             Fermi-level           -0.3415728 Eh           -9.2947 eV

   #   Z        covCN         q      C6AA      α(0)
   1   7 N      2.707    -0.119    23.589     7.213
   2   6 C      2.862     0.051    26.850     8.493
   3   7 N      1.897     0.151    19.298     6.513
   4   7 N      0.987    -0.159    24.035     7.050
   5   8 O      1.856    -0.138    16.360     5.462
   6   7 N      1.892    -0.066    23.256     7.149
   7   6 C      2.875     0.043    27.037     8.524
   8   1 H      0.860     0.171     1.267     1.763
   9   1 H      0.927     0.066     2.134     2.284

 Mol. C6AA /au·bohr⁶  :       1290.546153
 Mol. C8AA /au·bohr⁸  :      29522.205474
 Mol. α(0) /au        :         54.452324


Wiberg/Mayer (AO) data.
largest (>0.10) Wiberg bond orders for each atom
          total WBO             WBO to atom ...
     1  N   3.125        C    2 1.009    O    5 0.938    H    8 0.936
     2  C   3.900        N    3 1.408    C    7 1.107    N    1 1.009    N    4 0.312
     3  N   3.760        N    4 2.194    C    2 1.408
     4  N   2.834        N    3 2.194    C    2 0.312    N    6 0.119
     5  O   2.227        N    6 1.086    N    1 0.938    C    7 0.104
     6  N   3.095        C    7 1.717    O    5 1.086    N    4 0.119
     7  C   3.977        N    6 1.717    C    2 1.107    H    9 0.962    O    5 0.104
     8  H   0.971        N    1 0.936
     9  H   0.996        C    7 0.962

molecular dipole:
                 x           y           z       tot (Debye)
 q only:       -0.240       0.148       0.258
   full:       -0.384       0.394       0.374       1.691
molecular quadrupole (traceless):
                xx          xy          yy          xz          yz          zz
 q only:       -2.755      -2.273       0.920       4.418      -1.056       1.835
  q+dip:       -5.936      -4.493       2.864       6.416      -1.723       3.072
   full:       -6.411      -4.948       3.016       7.101      -1.624       3.395


           -------------------------------------------------
          | TOTAL ENERGY              -20.875578210846 Eh   |
          | GRADIENT NORM               0.001740582070 Eh/α |
          | HOMO-LUMO GAP               1.110120725297 eV   |
           -------------------------------------------------

------------------------------------------------------------------------
 * finished run on 2021/06/02 at 10:00:06.966     
------------------------------------------------------------------------
 total:
 * wall-time:     0 d,  0 h,  0 min,  0.015 sec
 *  cpu-time:     0 d,  0 h,  0 min,  0.014 sec
 * ratio c/w:     0.986 speedup
 SCF:
 * wall-time:     0 d,  0 h,  0 min,  0.007 sec
 *  cpu-time:     0 d,  0 h,  0 min,  0.007 sec
 * ratio c/w:     1.000 speedup

