      -----------------------------------------------------------      
     |                   =====================                   |     
     |                           x T B                           |     
     |                   =====================                   |     
     |                         S. Grimme                         |     
     |          Mulliken Center for Theoretical Chemistry        |     
     |                    University of Bonn                     |     
     |                 Version 6.1.4 (SAW190525)                 |     
      -----------------------------------------------------------      

   This program is distributed in the hope that it will be useful,
   but WITHOUT ANY WARRANTY; without even the implied warranty of
   MERCHANTABILITY or FITNESS FOR A PARTICULAR PURPOSE.
   
   FOR NON-COMMERCIAL, ACADEMIA USE ONLY.
   
   Cite this work as:
   S. Grimme, C. Bannwarth, P. Shushkov, J. Comput. Theory Chem., 2017,
   13, 1989-2009. DOI: 10.1021/acs.jctc.7b00118
   C. Bannwarth, S. Ehlert and S. Grimme., J. Comput. Theory Chem., 2019,
   just accepted. DOI: 10.1021/acs.jctc.8b01176
   
   for sTDA-xTB:
   S. Grimme and C. Bannwarth, J. Chem. Phys., 2016, 145, 054103.
   DOI: 10.1063/1.4959605
   
   in the mass-spec context:
   V. Asgeirsson, C. Bauer and S. Grimme, Chem. Sci., 2017, 8, 4879.
   DOI: 10.1039/c7sc00601b
   
   for metadynamics refer to:
   S. Grimme, J. Chem. Theory Comput. Article ASAP, 2019,
   DOI: 10.1021/acs.jctc.9b00143
   
   with help from (in alphabetical order)
   C. Bannwarth, F. Bohle, G. Brandenburg, E. Caldeweyher, M. Checinski,
   S. Dohm, S. Ehlert, S. Ehrlich, F. März, H. Neugebauer, J. Pisarek,
   P. Pracht, P. Shushkov, and S. Spicher.
   
 * started run on 2021/06/02 at 10:00:07.401     

           -------------------------------------------------
          |                Calculation Setup                |
           -------------------------------------------------

          program call               : /groups/kemi/koerstz/opt/xtb/6.1/bin/xtb 53.xyz --gfn2 --acc 0.2 --chrg 0
          hostname                   : node305
          coordinate file            : 53.xyz
          omp threads                :                     1
          number of atoms            :                     9
          number of electrons        :                    36
          charge                     :                     0
          spin                       :                   0.0
          first test random number   :      0.40967603811177


########################################################################
# WARNING! Please study the warnings concerning your input carefully
#  - XTBPATH is not set, using XTBHOME instead
########################################################################

           ------------------------------------------------- 
          |                 G F N 2 - x T B                 |
          | Geometry, Frequencies, Noncovalent interactions |
          |            JCTC 2018 parametrisation            |
           ------------------------------------------------- 
             k(s)              :                1.8500
             k(p)              :                2.2300
             k(d)              :                2.2300
             k(f)              :                2.0000
             kEN (H0ij)        :               -2.0000
             D4 a1             :                0.5200
             D4 a2             :                5.0000
             D4 s6             :                1.0000
             D4 s8             :                2.7000
             D4 s9             :                5.0000
             alphaj            :                2.0000

  Z AO/shell   Hii/eV     exponent
  1     Wed Apr 25 08:07:45 CEST 2018   EN: 2.200 GM2: 0.406  GM3: 0.0800  RAES: 1.40
     1s    -10.707211    1.230000
  6     Wed Apr 25 08:07:45 CEST 2018   EN: 2.550 GM2: 0.538  GM3: 0.1500  RAES: 3.00
     2s    -13.970922    2.096432
     2p    -10.063292    1.800000
  7     Wed Apr 25 08:07:45 CEST 2018   EN: 3.040 GM2: 0.461  GM3:-0.0640  RAES: 1.90
     2s    -16.686243    2.339881
     2p    -12.523956    2.014332
  8     Wed Apr 25 08:07:45 CEST 2018   EN: 3.440 GM2: 0.452  GM3:-0.0517  RAES: 1.80
     2s    -20.229985    2.439742
     2p    -15.503117    2.137023


            Z     q(EN)     CN     RAES       Cart. coordinates
     1  N   5.0   -0.32    3.01    1.93    -0.44298    -1.35602    -2.37132
     2  C   4.0    0.27    3.07    3.02    -0.80072    -2.15426     0.18674
     3  N   5.0   -0.15    2.01    1.90    -2.83461    -3.03129     1.08002
     4  N   5.0   -0.16    1.01    1.90    -4.63269    -3.73697     2.03513
     5  O   6.0    0.01    2.01    1.83     2.22662    -0.69415    -2.43841
     6  N   5.0   -0.22    2.06    1.90     3.30001    -1.18096    -0.18083
     7  C   4.0    0.12    3.06    3.02     1.65893    -2.03343     1.36429
     8  H   1.0    0.28    1.00    1.43    -1.42899     0.21974    -2.88820
     9  H   1.0    0.17    1.00    1.43     2.10654    -2.53407     3.27122

           ------------------------------------------------- 
          |        Self-Consistent Charge Iterations        |
           ------------------------------------------------- 
q/qsh data taken from xtbrestart
CAMM data taken from xtbrestart

          ...................................................
          :                      SETUP                      :
          :.................................................:
          :  # basis functions                  30          :
          :  # atomic orbitals                  30          :
          :  # shells                           16          :
          :  # electrons                        36          :
          :  max. iterations                   250          :
          :  Hamiltonian                  GFN2-xTB          :
          :  restarted?                       true          :
          :  GBSA solvation                  false          :
          :  PC potential                    false          :
          :  electronic temp.          300.0000000     K    :
          :  accuracy                    0.2000000          :
          :  -> integral cutoff          0.3198970E+02      :
          :  -> integral neglect         0.2000000E-08      :
          :  -> SCF convergence          0.2000000E-06 Eh   :
          :  -> wf. convergence          0.2000000E-04 e    :
          :  Broyden damping             0.4000000          :
          ...................................................

 iter      E             dE          RMSdq      gap      omega  full diag
   1    -20.9926676 -0.209927E+02  0.597E+00    1.01       0.0  T
   2    -21.0659051 -0.732375E-01  0.417E+00    2.10       1.0  T
   3    -21.0744450 -0.853990E-02  0.249E+00    1.11       1.0  T
   4    -21.0938550 -0.194100E-01  0.129E+00    1.40       1.0  T
   5    -21.1025601 -0.870509E-02  0.266E-01    1.11       1.0  T
   6    -21.1028925 -0.332400E-03  0.124E-01    1.12       1.0  T
   7    -21.1029060 -0.134916E-04  0.616E-02    1.12       1.0  T
   8    -21.1029228 -0.168104E-04  0.186E-02    1.11       1.8  T
   9    -21.1029236 -0.775727E-06  0.861E-03    1.11       3.9  T
  10    -21.1029240 -0.420791E-06  0.211E-03    1.11      15.8  T
  11    -21.1029240 -0.139611E-07  0.117E-03    1.11      28.6  T
  12    -21.1029241 -0.785167E-08  0.369E-04    1.11      90.2  T
  13    -21.1029241 -0.485734E-09  0.145E-04    1.11     229.4  T
  14    -21.1029241 -0.743015E-10  0.520E-05    1.11     641.5  T

   *** convergence criteria satisfied after 14 iterations ***

         #    Occupation            Energy/Eh            Energy/eV
      -------------------------------------------------------------
         1        2.0000           -0.7702828             -20.9605
       ...           ...                  ...                  ...
        12        2.0000           -0.5354375             -14.5700
        13        2.0000           -0.5211123             -14.1802
        14        2.0000           -0.4924726             -13.4009
        15        2.0000           -0.4777307             -12.9997
        16        2.0000           -0.4676489             -12.7254
        17        2.0000           -0.4425913             -12.0435
        18        2.0000           -0.3618796              -9.8472 (HOMO)
        19                         -0.3211639              -8.7393 (LUMO)
        20                         -0.2808890              -7.6434
        21                         -0.1836316              -4.9969
        22                         -0.1390996              -3.7851
        23                         -0.0159928              -0.4352
       ...                                ...                  ...
        30                          1.0070270              27.4026
      -------------------------------------------------------------
                  HL-Gap            0.0407157 Eh            1.1079 eV
             Fermi-level           -0.3415217 Eh           -9.2933 eV

 SCC (total)                   0 d,  0 h,  0 min,  0.008 sec
 SCC setup                      ...        0 min,  0.000 sec (  1.445%)
 Dispersion                     ...        0 min,  0.000 sec (  0.787%)
 integral evaluation            ...        0 min,  0.001 sec ( 14.001%)
 zeroth order Hamiltonian       ...        0 min,  0.000 sec (  0.304%)
 iterations                     ...        0 min,  0.004 sec ( 55.200%)
 molecular gradient             ...        0 min,  0.002 sec ( 25.647%)
 printout                       ...        0 min,  0.000 sec (  2.210%)

         :::::::::::::::::::::::::::::::::::::::::::::::::::::
         ::                     SUMMARY                     ::
         :::::::::::::::::::::::::::::::::::::::::::::::::::::
         :: total energy              -20.875580836598 Eh   ::
         :: gradient norm               0.000609993863 Eh/α ::
         :: HOMO-LUMO gap               1.107930091100 eV   ::
         ::.................................................::
         :: SCC energy                -21.102924054625 Eh   ::
         :: -> isotropic ES             0.014423339567 Eh   ::
         :: -> anisotropic ES           0.004281540109 Eh   ::
         :: -> anisotropic XC           0.031446503366 Eh   ::
         :: -> dispersion              -0.005836596354 Eh   ::
         :: repulsion energy            0.227340075333 Eh   ::
         :: add. restraining            0.000000000000 Eh   ::
         :::::::::::::::::::::::::::::::::::::::::::::::::::::

           -------------------------------------------------
          |                Property Printout                |
           -------------------------------------------------

    * Orbital Energies and Occupations

         #    Occupation            Energy/Eh            Energy/eV
      -------------------------------------------------------------
         1        2.0000           -0.7702828             -20.9605
       ...           ...                  ...                  ...
         6        2.0000           -0.6496237             -17.6772
         7        2.0000           -0.6174617             -16.8020
         8        2.0000           -0.6079152             -16.5422
         9        2.0000           -0.5850225             -15.9193
        10        2.0000           -0.5831449             -15.8682
        11        2.0000           -0.5751133             -15.6496
        12        2.0000           -0.5354375             -14.5700
        13        2.0000           -0.5211123             -14.1802
        14        2.0000           -0.4924726             -13.4009
        15        2.0000           -0.4777307             -12.9997
        16        2.0000           -0.4676489             -12.7254
        17        2.0000           -0.4425913             -12.0435
        18        2.0000           -0.3618796              -9.8472 (HOMO)
        19                         -0.3211639              -8.7393 (LUMO)
        20                         -0.2808890              -7.6434
        21                         -0.1836316              -4.9969
        22                         -0.1390996              -3.7851
        23                         -0.0159928              -0.4352
        24                          0.0188590               0.5132
        25                          0.1079167               2.9366
        26                          0.1735674               4.7230
        27                          0.2058640               5.6018
        28                          0.3647200               9.9245
        29                          0.4920635              13.3897
        30                          1.0070270              27.4026
      -------------------------------------------------------------
                  HL-Gap            0.0407157 Eh            1.1079 eV
             Fermi-level           -0.3415217 Eh           -9.2933 eV

   #   Z        covCN         q      C6AA      α(0)
   1   7 N      2.708    -0.118    23.577     7.212
   2   6 C      2.862     0.051    26.849     8.493
   3   7 N      1.897     0.151    19.301     6.513
   4   7 N      0.987    -0.159    24.036     7.050
   5   8 O      1.856    -0.138    16.358     5.462
   6   7 N      1.892    -0.066    23.265     7.151
   7   6 C      2.875     0.043    27.036     8.524
   8   1 H      0.860     0.171     1.268     1.764
   9   1 H      0.927     0.066     2.134     2.284

 Mol. C6AA /au·bohr⁶  :       1290.551794
 Mol. C8AA /au·bohr⁸  :      29522.065968
 Mol. α(0) /au        :         54.452496


Wiberg/Mayer (AO) data.
largest (>0.10) Wiberg bond orders for each atom
          total WBO             WBO to atom ...
     1  N   3.126        C    2 1.009    O    5 0.938    H    8 0.936
     2  C   3.900        N    3 1.407    C    7 1.108    N    1 1.009    N    4 0.312
     3  N   3.760        N    4 2.194    C    2 1.407
     4  N   2.834        N    3 2.194    C    2 0.312    N    6 0.119
     5  O   2.227        N    6 1.085    N    1 0.938    C    7 0.104
     6  N   3.093        C    7 1.717    O    5 1.085    N    4 0.119
     7  C   3.977        N    6 1.717    C    2 1.108    H    9 0.962    O    5 0.104
     8  H   0.971        N    1 0.936
     9  H   0.996        C    7 0.962

molecular dipole:
                 x           y           z       tot (Debye)
 q only:       -0.240       0.145       0.257
   full:       -0.385       0.389       0.373       1.684
molecular quadrupole (traceless):
                xx          xy          yy          xz          yz          zz
 q only:       -2.775      -2.273       0.932       4.418      -1.057       1.842
  q+dip:       -5.967      -4.494       2.884       6.420      -1.727       3.083
   full:       -6.448      -4.947       3.038       7.103      -1.630       3.410


           -------------------------------------------------
          | TOTAL ENERGY              -20.875580836598 Eh   |
          | GRADIENT NORM               0.000609993863 Eh/α |
          | HOMO-LUMO GAP               1.107930091100 eV   |
           -------------------------------------------------

------------------------------------------------------------------------
 * finished run on 2021/06/02 at 10:00:07.417     
------------------------------------------------------------------------
 total:
 * wall-time:     0 d,  0 h,  0 min,  0.016 sec
 *  cpu-time:     0 d,  0 h,  0 min,  0.016 sec
 * ratio c/w:     0.984 speedup
 SCF:
 * wall-time:     0 d,  0 h,  0 min,  0.008 sec
 *  cpu-time:     0 d,  0 h,  0 min,  0.008 sec
 * ratio c/w:     0.994 speedup

