      -----------------------------------------------------------      
     |                   =====================                   |     
     |                           x T B                           |     
     |                   =====================                   |     
     |                         S. Grimme                         |     
     |          Mulliken Center for Theoretical Chemistry        |     
     |                    University of Bonn                     |     
     |                 Version 6.1.4 (SAW190525)                 |     
      -----------------------------------------------------------      

   This program is distributed in the hope that it will be useful,
   but WITHOUT ANY WARRANTY; without even the implied warranty of
   MERCHANTABILITY or FITNESS FOR A PARTICULAR PURPOSE.
   
   FOR NON-COMMERCIAL, ACADEMIA USE ONLY.
   
   Cite this work as:
   S. Grimme, C. Bannwarth, P. Shushkov, J. Comput. Theory Chem., 2017,
   13, 1989-2009. DOI: 10.1021/acs.jctc.7b00118
   C. Bannwarth, S. Ehlert and S. Grimme., J. Comput. Theory Chem., 2019,
   just accepted. DOI: 10.1021/acs.jctc.8b01176
   
   for sTDA-xTB:
   S. Grimme and C. Bannwarth, J. Chem. Phys., 2016, 145, 054103.
   DOI: 10.1063/1.4959605
   
   in the mass-spec context:
   V. Asgeirsson, C. Bauer and S. Grimme, Chem. Sci., 2017, 8, 4879.
   DOI: 10.1039/c7sc00601b
   
   for metadynamics refer to:
   S. Grimme, J. Chem. Theory Comput. Article ASAP, 2019,
   DOI: 10.1021/acs.jctc.9b00143
   
   with help from (in alphabetical order)
   C. Bannwarth, F. Bohle, G. Brandenburg, E. Caldeweyher, M. Checinski,
   S. Dohm, S. Ehlert, S. Ehrlich, F. März, H. Neugebauer, J. Pisarek,
   P. Pracht, P. Shushkov, and S. Spicher.
   
 * started run on 2021/06/02 at 10:00:06.309     

           -------------------------------------------------
          |                Calculation Setup                |
           -------------------------------------------------

          program call               : /groups/kemi/koerstz/opt/xtb/6.1/bin/xtb 54.xyz --gfn2 --acc 0.2 --chrg 0
          hostname                   : node305
          coordinate file            : 54.xyz
          omp threads                :                     1
          number of atoms            :                     9
          number of electrons        :                    36
          charge                     :                     0
          spin                       :                   0.0
          first test random number   :      0.31972454170537


########################################################################
# WARNING! Please study the warnings concerning your input carefully
#  - XTBPATH is not set, using XTBHOME instead
########################################################################

           ------------------------------------------------- 
          |                 G F N 2 - x T B                 |
          | Geometry, Frequencies, Noncovalent interactions |
          |            JCTC 2018 parametrisation            |
           ------------------------------------------------- 
             k(s)              :                1.8500
             k(p)              :                2.2300
             k(d)              :                2.2300
             k(f)              :                2.0000
             kEN (H0ij)        :               -2.0000
             D4 a1             :                0.5200
             D4 a2             :                5.0000
             D4 s6             :                1.0000
             D4 s8             :                2.7000
             D4 s9             :                5.0000
             alphaj            :                2.0000

  Z AO/shell   Hii/eV     exponent
  1     Wed Apr 25 08:07:45 CEST 2018   EN: 2.200 GM2: 0.406  GM3: 0.0800  RAES: 1.40
     1s    -10.707211    1.230000
  6     Wed Apr 25 08:07:45 CEST 2018   EN: 2.550 GM2: 0.538  GM3: 0.1500  RAES: 3.00
     2s    -13.970922    2.096432
     2p    -10.063292    1.800000
  7     Wed Apr 25 08:07:45 CEST 2018   EN: 3.040 GM2: 0.461  GM3:-0.0640  RAES: 1.90
     2s    -16.686243    2.339881
     2p    -12.523956    2.014332
  8     Wed Apr 25 08:07:45 CEST 2018   EN: 3.440 GM2: 0.452  GM3:-0.0517  RAES: 1.80
     2s    -20.229985    2.439742
     2p    -15.503117    2.137023


            Z     q(EN)     CN     RAES       Cart. coordinates
     1  N   5.0   -0.32    3.01    1.93    -0.44224    -1.35467    -2.37132
     2  C   4.0    0.27    3.07    3.02    -0.80161    -2.15200     0.18675
     3  N   5.0   -0.15    2.01    1.90    -2.83511    -3.03141     1.07879
     4  N   5.0   -0.16    1.01    1.90    -4.63055    -3.73892     2.03790
     5  O   6.0    0.01    2.01    1.83     2.22658    -0.69415    -2.43851
     6  N   5.0   -0.22    2.06    1.90     3.30035    -1.18297    -0.18056
     7  C   4.0    0.12    3.06    3.02     1.65795    -2.03342     1.36436
     8  H   1.0    0.28    1.00    1.43    -1.42851     0.22023    -2.89024
     9  H   1.0    0.17    1.00    1.43     2.10525    -2.53411     3.27147

           ------------------------------------------------- 
          |        Self-Consistent Charge Iterations        |
           ------------------------------------------------- 
q/qsh data taken from xtbrestart
CAMM data taken from xtbrestart

          ...................................................
          :                      SETUP                      :
          :.................................................:
          :  # basis functions                  30          :
          :  # atomic orbitals                  30          :
          :  # shells                           16          :
          :  # electrons                        36          :
          :  max. iterations                   250          :
          :  Hamiltonian                  GFN2-xTB          :
          :  restarted?                       true          :
          :  GBSA solvation                  false          :
          :  PC potential                    false          :
          :  electronic temp.          300.0000000     K    :
          :  accuracy                    0.2000000          :
          :  -> integral cutoff          0.3198970E+02      :
          :  -> integral neglect         0.2000000E-08      :
          :  -> SCF convergence          0.2000000E-06 Eh   :
          :  -> wf. convergence          0.2000000E-04 e    :
          :  Broyden damping             0.4000000          :
          ...................................................

 iter      E             dE          RMSdq      gap      omega  full diag
   1    -20.9990411 -0.209990E+02  0.626E+00    0.58       0.0  T
   2    -21.0580074 -0.589664E-01  0.433E+00    1.95       1.0  T
   3    -21.0696780 -0.116706E-01  0.272E+00    0.94       1.0  T
   4    -21.0946206 -0.249425E-01  0.112E+00    1.27       1.0  T
   5    -21.1023801 -0.775954E-02  0.349E-01    1.10       1.0  T
   6    -21.1028030 -0.422858E-03  0.169E-01    1.12       1.0  T
   7    -21.1028373 -0.343273E-04  0.639E-02    1.11       1.0  T
   8    -21.1028514 -0.140789E-04  0.227E-02    1.11       1.5  T
   9    -21.1028515 -0.131040E-06  0.106E-02    1.10       3.1  T
  10    -21.1028520 -0.537349E-06  0.230E-03    1.11      14.5  T
  11    -21.1028521 -0.662979E-08  0.111E-03    1.11      30.1  T
  12    -21.1028521 -0.227371E-08  0.311E-04    1.11     107.2  T
  13    -21.1028521 -0.102883E-09  0.143E-04    1.11     232.9  T
  14    -21.1028521 -0.181544E-11  0.704E-05    1.11     473.4  T

   *** convergence criteria satisfied after 14 iterations ***

         #    Occupation            Energy/Eh            Energy/eV
      -------------------------------------------------------------
         1        2.0000           -0.7702745             -20.9602
       ...           ...                  ...                  ...
        12        2.0000           -0.5354105             -14.5693
        13        2.0000           -0.5211244             -14.1805
        14        2.0000           -0.4924506             -13.4003
        15        2.0000           -0.4778093             -13.0019
        16        2.0000           -0.4676171             -12.7245
        17        2.0000           -0.4426027             -12.0438
        18        2.0000           -0.3618503              -9.8464 (HOMO)
        19                         -0.3211811              -8.7398 (LUMO)
        20                         -0.2809249              -7.6444
        21                         -0.1836596              -4.9976
        22                         -0.1386847              -3.7738
        23                         -0.0164388              -0.4473
       ...                                ...                  ...
        30                          1.0065089              27.3885
      -------------------------------------------------------------
                  HL-Gap            0.0406692 Eh            1.1067 eV
             Fermi-level           -0.3415157 Eh           -9.2931 eV

 SCC (total)                   0 d,  0 h,  0 min,  0.007 sec
 SCC setup                      ...        0 min,  0.000 sec (  1.803%)
 Dispersion                     ...        0 min,  0.000 sec (  0.724%)
 integral evaluation            ...        0 min,  0.001 sec ( 14.238%)
 zeroth order Hamiltonian       ...        0 min,  0.000 sec (  0.416%)
 iterations                     ...        0 min,  0.004 sec ( 54.333%)
 molecular gradient             ...        0 min,  0.002 sec ( 25.722%)
 printout                       ...        0 min,  0.000 sec (  2.309%)

         :::::::::::::::::::::::::::::::::::::::::::::::::::::
         ::                     SUMMARY                     ::
         :::::::::::::::::::::::::::::::::::::::::::::::::::::
         :: total energy              -20.875581452910 Eh   ::
         :: gradient norm               0.000298447459 Eh/α ::
         :: HOMO-LUMO gap               1.106664588596 eV   ::
         ::.................................................::
         :: SCC energy                -21.102852054114 Eh   ::
         :: -> isotropic ES             0.014429449635 Eh   ::
         :: -> anisotropic ES           0.004279219171 Eh   ::
         :: -> anisotropic XC           0.031440540818 Eh   ::
         :: -> dispersion              -0.005836544309 Eh   ::
         :: repulsion energy            0.227267458332 Eh   ::
         :: add. restraining            0.000000000000 Eh   ::
         :::::::::::::::::::::::::::::::::::::::::::::::::::::

           -------------------------------------------------
          |                Property Printout                |
           -------------------------------------------------

    * Orbital Energies and Occupations

         #    Occupation            Energy/Eh            Energy/eV
      -------------------------------------------------------------
         1        2.0000           -0.7702745             -20.9602
       ...           ...                  ...                  ...
         6        2.0000           -0.6496298             -17.6773
         7        2.0000           -0.6174692             -16.8022
         8        2.0000           -0.6079425             -16.5430
         9        2.0000           -0.5850030             -15.9187
        10        2.0000           -0.5831039             -15.8671
        11        2.0000           -0.5750983             -15.6492
        12        2.0000           -0.5354105             -14.5693
        13        2.0000           -0.5211244             -14.1805
        14        2.0000           -0.4924506             -13.4003
        15        2.0000           -0.4778093             -13.0019
        16        2.0000           -0.4676171             -12.7245
        17        2.0000           -0.4426027             -12.0438
        18        2.0000           -0.3618503              -9.8464 (HOMO)
        19                         -0.3211811              -8.7398 (LUMO)
        20                         -0.2809249              -7.6444
        21                         -0.1836596              -4.9976
        22                         -0.1386847              -3.7738
        23                         -0.0164388              -0.4473
        24                          0.0187085               0.5091
        25                          0.1080440               2.9400
        26                          0.1733572               4.7173
        27                          0.2060434               5.6067
        28                          0.3646591               9.9229
        29                          0.4918961              13.3852
        30                          1.0065089              27.3885
      -------------------------------------------------------------
                  HL-Gap            0.0406692 Eh            1.1067 eV
             Fermi-level           -0.3415157 Eh           -9.2931 eV

   #   Z        covCN         q      C6AA      α(0)
   1   7 N      2.708    -0.118    23.572     7.211
   2   6 C      2.862     0.051    26.849     8.493
   3   7 N      1.897     0.151    19.302     6.513
   4   7 N      0.987    -0.159    24.036     7.050
   5   8 O      1.856    -0.138    16.359     5.462
   6   7 N      1.892    -0.067    23.268     7.151
   7   6 C      2.875     0.043    27.033     8.523
   8   1 H      0.860     0.171     1.268     1.764
   9   1 H      0.927     0.066     2.133     2.284

 Mol. C6AA /au·bohr⁶  :       1290.545340
 Mol. C8AA /au·bohr⁸  :      29521.884726
 Mol. α(0) /au        :         54.452302


Wiberg/Mayer (AO) data.
largest (>0.10) Wiberg bond orders for each atom
          total WBO             WBO to atom ...
     1  N   3.126        C    2 1.009    O    5 0.939    H    8 0.936
     2  C   3.900        N    3 1.407    C    7 1.108    N    1 1.009    N    4 0.312
     3  N   3.760        N    4 2.194    C    2 1.407
     4  N   2.834        N    3 2.194    C    2 0.312    N    6 0.119
     5  O   2.227        N    6 1.085    N    1 0.939    C    7 0.104
     6  N   3.093        C    7 1.717    O    5 1.085    N    4 0.119
     7  C   3.977        N    6 1.717    C    2 1.108    H    9 0.962    O    5 0.104
     8  H   0.971        N    1 0.936
     9  H   0.996        C    7 0.962

molecular dipole:
                 x           y           z       tot (Debye)
 q only:       -0.241       0.145       0.256
   full:       -0.386       0.390       0.371       1.685
molecular quadrupole (traceless):
                xx          xy          yy          xz          yz          zz
 q only:       -2.774      -2.273       0.929       4.423      -1.052       1.845
  q+dip:       -5.967      -4.492       2.878       6.428      -1.718       3.088
   full:       -6.445      -4.945       3.031       7.112      -1.621       3.414


           -------------------------------------------------
          | TOTAL ENERGY              -20.875581452910 Eh   |
          | GRADIENT NORM               0.000298447459 Eh/α |
          | HOMO-LUMO GAP               1.106664588596 eV   |
           -------------------------------------------------

------------------------------------------------------------------------
 * finished run on 2021/06/02 at 10:00:06.324     
------------------------------------------------------------------------
 total:
 * wall-time:     0 d,  0 h,  0 min,  0.015 sec
 *  cpu-time:     0 d,  0 h,  0 min,  0.015 sec
 * ratio c/w:     0.986 speedup
 SCF:
 * wall-time:     0 d,  0 h,  0 min,  0.008 sec
 *  cpu-time:     0 d,  0 h,  0 min,  0.008 sec
 * ratio c/w:     1.000 speedup

