      -----------------------------------------------------------      
     |                   =====================                   |     
     |                           x T B                           |     
     |                   =====================                   |     
     |                         S. Grimme                         |     
     |          Mulliken Center for Theoretical Chemistry        |     
     |                    University of Bonn                     |     
     |                 Version 6.1.4 (SAW190525)                 |     
      -----------------------------------------------------------      

   This program is distributed in the hope that it will be useful,
   but WITHOUT ANY WARRANTY; without even the implied warranty of
   MERCHANTABILITY or FITNESS FOR A PARTICULAR PURPOSE.
   
   FOR NON-COMMERCIAL, ACADEMIA USE ONLY.
   
   Cite this work as:
   S. Grimme, C. Bannwarth, P. Shushkov, J. Comput. Theory Chem., 2017,
   13, 1989-2009. DOI: 10.1021/acs.jctc.7b00118
   C. Bannwarth, S. Ehlert and S. Grimme., J. Comput. Theory Chem., 2019,
   just accepted. DOI: 10.1021/acs.jctc.8b01176
   
   for sTDA-xTB:
   S. Grimme and C. Bannwarth, J. Chem. Phys., 2016, 145, 054103.
   DOI: 10.1063/1.4959605
   
   in the mass-spec context:
   V. Asgeirsson, C. Bauer and S. Grimme, Chem. Sci., 2017, 8, 4879.
   DOI: 10.1039/c7sc00601b
   
   for metadynamics refer to:
   S. Grimme, J. Chem. Theory Comput. Article ASAP, 2019,
   DOI: 10.1021/acs.jctc.9b00143
   
   with help from (in alphabetical order)
   C. Bannwarth, F. Bohle, G. Brandenburg, E. Caldeweyher, M. Checinski,
   S. Dohm, S. Ehlert, S. Ehrlich, F. März, H. Neugebauer, J. Pisarek,
   P. Pracht, P. Shushkov, and S. Spicher.
   
 * started run on 2021/06/02 at 10:00:06.910     

           -------------------------------------------------
          |                Calculation Setup                |
           -------------------------------------------------

          program call               : /groups/kemi/koerstz/opt/xtb/6.1/bin/xtb 56.xyz --gfn2 --acc 0.2 --chrg 0
          hostname                   : node305
          coordinate file            : 56.xyz
          omp threads                :                     1
          number of atoms            :                     9
          number of electrons        :                    36
          charge                     :                     0
          spin                       :                   0.0
          first test random number   :      0.40078784947608


########################################################################
# WARNING! Please study the warnings concerning your input carefully
#  - XTBPATH is not set, using XTBHOME instead
########################################################################

           ------------------------------------------------- 
          |                 G F N 2 - x T B                 |
          | Geometry, Frequencies, Noncovalent interactions |
          |            JCTC 2018 parametrisation            |
           ------------------------------------------------- 
             k(s)              :                1.8500
             k(p)              :                2.2300
             k(d)              :                2.2300
             k(f)              :                2.0000
             kEN (H0ij)        :               -2.0000
             D4 a1             :                0.5200
             D4 a2             :                5.0000
             D4 s6             :                1.0000
             D4 s8             :                2.7000
             D4 s9             :                5.0000
             alphaj            :                2.0000

  Z AO/shell   Hii/eV     exponent
  1     Wed Apr 25 08:07:45 CEST 2018   EN: 2.200 GM2: 0.406  GM3: 0.0800  RAES: 1.40
     1s    -10.707211    1.230000
  6     Wed Apr 25 08:07:45 CEST 2018   EN: 2.550 GM2: 0.538  GM3: 0.1500  RAES: 3.00
     2s    -13.970922    2.096432
     2p    -10.063292    1.800000
  7     Wed Apr 25 08:07:45 CEST 2018   EN: 3.040 GM2: 0.461  GM3:-0.0640  RAES: 1.90
     2s    -16.686243    2.339881
     2p    -12.523956    2.014332
  8     Wed Apr 25 08:07:45 CEST 2018   EN: 3.440 GM2: 0.452  GM3:-0.0517  RAES: 1.80
     2s    -20.229985    2.439742
     2p    -15.503117    2.137023


            Z     q(EN)     CN     RAES       Cart. coordinates
     1  N   5.0   -0.32    3.01    1.93    -0.44212    -1.35468    -2.37176
     2  C   4.0    0.27    3.07    3.02    -0.80181    -2.15220     0.18626
     3  N   5.0   -0.15    2.01    1.90    -2.83545    -3.03047     1.07896
     4  N   5.0   -0.16    1.01    1.90    -4.62985    -3.74009     2.03821
     5  O   6.0    0.01    2.01    1.83     2.22668    -0.69509    -2.43896
     6  N   5.0   -0.22    2.06    1.90     3.30026    -1.18291    -0.18035
     7  C   4.0    0.12    3.06    3.02     1.65756    -2.03334     1.36425
     8  H   1.0    0.28    1.00    1.43    -1.42793     0.22103    -2.88943
     9  H   1.0    0.17    1.00    1.43     2.10478    -2.53366     3.27145

           ------------------------------------------------- 
          |        Self-Consistent Charge Iterations        |
           ------------------------------------------------- 
q/qsh data taken from xtbrestart
CAMM data taken from xtbrestart

          ...................................................
          :                      SETUP                      :
          :.................................................:
          :  # basis functions                  30          :
          :  # atomic orbitals                  30          :
          :  # shells                           16          :
          :  # electrons                        36          :
          :  max. iterations                   250          :
          :  Hamiltonian                  GFN2-xTB          :
          :  restarted?                       true          :
          :  GBSA solvation                  false          :
          :  PC potential                    false          :
          :  electronic temp.          300.0000000     K    :
          :  accuracy                    0.2000000          :
          :  -> integral cutoff          0.3198970E+02      :
          :  -> integral neglect         0.2000000E-08      :
          :  -> SCF convergence          0.2000000E-06 Eh   :
          :  -> wf. convergence          0.2000000E-04 e    :
          :  Broyden damping             0.4000000          :
          ...................................................

 iter      E             dE          RMSdq      gap      omega  full diag
   1    -21.0978909 -0.210979E+02  0.124E+00    1.34       0.0  T
   2    -21.0963156  0.157538E-02  0.969E-01    0.97       1.0  T
   3    -21.1014950 -0.517947E-02  0.569E-01    1.19       1.0  T
   4    -21.1028333 -0.133829E-02  0.115E-01    1.12       1.0  T
   5    -21.1028724 -0.390528E-04  0.448E-02    1.11       1.0  T
   6    -21.1028762 -0.382943E-05  0.200E-02    1.11       1.7  T
   7    -21.1028773 -0.111966E-05  0.707E-03    1.11       4.7  T
   8    -21.1028775 -0.188661E-06  0.208E-03    1.11      16.0  T
   9    -21.1028775 -0.291750E-08  0.726E-04    1.11      45.9  T
  10    -21.1028775 -0.897742E-09  0.244E-04    1.11     136.8  T
  11    -21.1028775 -0.582503E-10  0.988E-05    1.11     337.5  T
  12    -21.1028775 -0.280203E-10  0.328E-05    1.11    1017.3  T

   *** convergence criteria satisfied after 12 iterations ***

         #    Occupation            Energy/Eh            Energy/eV
      -------------------------------------------------------------
         1        2.0000           -0.7702543             -20.9597
       ...           ...                  ...                  ...
        12        2.0000           -0.5353997             -14.5690
        13        2.0000           -0.5211244             -14.1805
        14        2.0000           -0.4924760             -13.4010
        15        2.0000           -0.4778118             -13.0019
        16        2.0000           -0.4676162             -12.7245
        17        2.0000           -0.4426023             -12.0438
        18        2.0000           -0.3618766              -9.8472 (HOMO)
        19                         -0.3211913              -8.7401 (LUMO)
        20                         -0.2809302              -7.6445
        21                         -0.1836536              -4.9975
        22                         -0.1385811              -3.7710
        23                         -0.0165749              -0.4510
       ...                                ...                  ...
        30                          1.0067820              27.3959
      -------------------------------------------------------------
                  HL-Gap            0.0406853 Eh            1.1071 eV
             Fermi-level           -0.3415340 Eh           -9.2936 eV

 SCC (total)                   0 d,  0 h,  0 min,  0.007 sec
 SCC setup                      ...        0 min,  0.000 sec (  1.770%)
 Dispersion                     ...        0 min,  0.000 sec (  0.830%)
 integral evaluation            ...        0 min,  0.001 sec ( 14.921%)
 zeroth order Hamiltonian       ...        0 min,  0.000 sec (  0.435%)
 iterations                     ...        0 min,  0.004 sec ( 51.680%)
 molecular gradient             ...        0 min,  0.002 sec ( 27.326%)
 printout                       ...        0 min,  0.000 sec (  2.553%)

         :::::::::::::::::::::::::::::::::::::::::::::::::::::
         ::                     SUMMARY                     ::
         :::::::::::::::::::::::::::::::::::::::::::::::::::::
         :: total energy              -20.875581584383 Eh   ::
         :: gradient norm               0.000162113512 Eh/α ::
         :: HOMO-LUMO gap               1.107102196606 eV   ::
         ::.................................................::
         :: SCC energy                -21.102877503040 Eh   ::
         :: -> isotropic ES             0.014435217216 Eh   ::
         :: -> anisotropic ES           0.004281651179 Eh   ::
         :: -> anisotropic XC           0.031440885900 Eh   ::
         :: -> dispersion              -0.005836619631 Eh   ::
         :: repulsion energy            0.227292774615 Eh   ::
         :: add. restraining            0.000000000000 Eh   ::
         :::::::::::::::::::::::::::::::::::::::::::::::::::::

           -------------------------------------------------
          |                Property Printout                |
           -------------------------------------------------

    * Orbital Energies and Occupations

         #    Occupation            Energy/Eh            Energy/eV
      -------------------------------------------------------------
         1        2.0000           -0.7702543             -20.9597
       ...           ...                  ...                  ...
         6        2.0000           -0.6496424             -17.6777
         7        2.0000           -0.6174826             -16.8026
         8        2.0000           -0.6079569             -16.5433
         9        2.0000           -0.5850382             -15.9197
        10        2.0000           -0.5831032             -15.8670
        11        2.0000           -0.5750870             -15.6489
        12        2.0000           -0.5353997             -14.5690
        13        2.0000           -0.5211244             -14.1805
        14        2.0000           -0.4924760             -13.4010
        15        2.0000           -0.4778118             -13.0019
        16        2.0000           -0.4676162             -12.7245
        17        2.0000           -0.4426023             -12.0438
        18        2.0000           -0.3618766              -9.8472 (HOMO)
        19                         -0.3211913              -8.7401 (LUMO)
        20                         -0.2809302              -7.6445
        21                         -0.1836536              -4.9975
        22                         -0.1385811              -3.7710
        23                         -0.0165749              -0.4510
        24                          0.0186970               0.5088
        25                          0.1079906               2.9386
        26                          0.1733124               4.7161
        27                          0.2060419               5.6067
        28                          0.3646570               9.9228
        29                          0.4918659              13.3844
        30                          1.0067820              27.3959
      -------------------------------------------------------------
                  HL-Gap            0.0406853 Eh            1.1071 eV
             Fermi-level           -0.3415340 Eh           -9.2936 eV

   #   Z        covCN         q      C6AA      α(0)
   1   7 N      2.708    -0.118    23.572     7.211
   2   6 C      2.862     0.051    26.849     8.493
   3   7 N      1.897     0.151    19.301     6.513
   4   7 N      0.987    -0.159    24.035     7.050
   5   8 O      1.856    -0.138    16.360     5.462
   6   7 N      1.892    -0.067    23.269     7.151
   7   6 C      2.875     0.043    27.033     8.523
   8   1 H      0.860     0.171     1.268     1.764
   9   1 H      0.927     0.066     2.133     2.284

 Mol. C6AA /au·bohr⁶  :       1290.546135
 Mol. C8AA /au·bohr⁸  :      29521.861509
 Mol. α(0) /au        :         54.452310


Wiberg/Mayer (AO) data.
largest (>0.10) Wiberg bond orders for each atom
          total WBO             WBO to atom ...
     1  N   3.126        C    2 1.009    O    5 0.939    H    8 0.936
     2  C   3.900        N    3 1.407    C    7 1.108    N    1 1.009    N    4 0.312
     3  N   3.760        N    4 2.194    C    2 1.407
     4  N   2.834        N    3 2.194    C    2 0.312    N    6 0.119
     5  O   2.227        N    6 1.085    N    1 0.939    C    7 0.104
     6  N   3.093        C    7 1.718    O    5 1.085    N    4 0.119
     7  C   3.977        N    6 1.718    C    2 1.108    H    9 0.962    O    5 0.104
     8  H   0.971        N    1 0.936
     9  H   0.996        C    7 0.962

molecular dipole:
                 x           y           z       tot (Debye)
 q only:       -0.242       0.146       0.256
   full:       -0.387       0.391       0.372       1.688
molecular quadrupole (traceless):
                xx          xy          yy          xz          yz          zz
 q only:       -2.771      -2.271       0.928       4.422      -1.053       1.843
  q+dip:       -5.962      -4.490       2.877       6.426      -1.719       3.085
   full:       -6.440      -4.944       3.030       7.110      -1.621       3.410


           -------------------------------------------------
          | TOTAL ENERGY              -20.875581584383 Eh   |
          | GRADIENT NORM               0.000162113512 Eh/α |
          | HOMO-LUMO GAP               1.107102196606 eV   |
           -------------------------------------------------

------------------------------------------------------------------------
 * finished run on 2021/06/02 at 10:00:06.925     
------------------------------------------------------------------------
 total:
 * wall-time:     0 d,  0 h,  0 min,  0.015 sec
 *  cpu-time:     0 d,  0 h,  0 min,  0.014 sec
 * ratio c/w:     0.984 speedup
 SCF:
 * wall-time:     0 d,  0 h,  0 min,  0.007 sec
 *  cpu-time:     0 d,  0 h,  0 min,  0.007 sec
 * ratio c/w:     1.000 speedup

