      -----------------------------------------------------------      
     |                   =====================                   |     
     |                           x T B                           |     
     |                   =====================                   |     
     |                         S. Grimme                         |     
     |          Mulliken Center for Theoretical Chemistry        |     
     |                    University of Bonn                     |     
     |                 Version 6.1.4 (SAW190525)                 |     
      -----------------------------------------------------------      

   This program is distributed in the hope that it will be useful,
   but WITHOUT ANY WARRANTY; without even the implied warranty of
   MERCHANTABILITY or FITNESS FOR A PARTICULAR PURPOSE.
   
   FOR NON-COMMERCIAL, ACADEMIA USE ONLY.
   
   Cite this work as:
   S. Grimme, C. Bannwarth, P. Shushkov, J. Comput. Theory Chem., 2017,
   13, 1989-2009. DOI: 10.1021/acs.jctc.7b00118
   C. Bannwarth, S. Ehlert and S. Grimme., J. Comput. Theory Chem., 2019,
   just accepted. DOI: 10.1021/acs.jctc.8b01176
   
   for sTDA-xTB:
   S. Grimme and C. Bannwarth, J. Chem. Phys., 2016, 145, 054103.
   DOI: 10.1063/1.4959605
   
   in the mass-spec context:
   V. Asgeirsson, C. Bauer and S. Grimme, Chem. Sci., 2017, 8, 4879.
   DOI: 10.1039/c7sc00601b
   
   for metadynamics refer to:
   S. Grimme, J. Chem. Theory Comput. Article ASAP, 2019,
   DOI: 10.1021/acs.jctc.9b00143
   
   with help from (in alphabetical order)
   C. Bannwarth, F. Bohle, G. Brandenburg, E. Caldeweyher, M. Checinski,
   S. Dohm, S. Ehlert, S. Ehrlich, F. März, H. Neugebauer, J. Pisarek,
   P. Pracht, P. Shushkov, and S. Spicher.
   
 * started run on 2021/06/02 at 10:00:07.194     

           -------------------------------------------------
          |                Calculation Setup                |
           -------------------------------------------------

          program call               : /groups/kemi/koerstz/opt/xtb/6.1/bin/xtb 6.xyz --gfn2 --acc 0.2 --chrg 0
          hostname                   : node305
          coordinate file            : 6.xyz
          omp threads                :                     1
          number of atoms            :                     9
          number of electrons        :                    36
          charge                     :                     0
          spin                       :                   0.0
          first test random number   :      0.94683335650751


########################################################################
# WARNING! Please study the warnings concerning your input carefully
#  - XTBPATH is not set, using XTBHOME instead
########################################################################

           ------------------------------------------------- 
          |                 G F N 2 - x T B                 |
          | Geometry, Frequencies, Noncovalent interactions |
          |            JCTC 2018 parametrisation            |
           ------------------------------------------------- 
             k(s)              :                1.8500
             k(p)              :                2.2300
             k(d)              :                2.2300
             k(f)              :                2.0000
             kEN (H0ij)        :               -2.0000
             D4 a1             :                0.5200
             D4 a2             :                5.0000
             D4 s6             :                1.0000
             D4 s8             :                2.7000
             D4 s9             :                5.0000
             alphaj            :                2.0000

  Z AO/shell   Hii/eV     exponent
  1     Wed Apr 25 08:07:45 CEST 2018   EN: 2.200 GM2: 0.406  GM3: 0.0800  RAES: 1.40
     1s    -10.707211    1.230000
  6     Wed Apr 25 08:07:45 CEST 2018   EN: 2.550 GM2: 0.538  GM3: 0.1500  RAES: 3.00
     2s    -13.970922    2.096432
     2p    -10.063292    1.800000
  7     Wed Apr 25 08:07:45 CEST 2018   EN: 3.040 GM2: 0.461  GM3:-0.0640  RAES: 1.90
     2s    -16.686243    2.339881
     2p    -12.523956    2.014332
  8     Wed Apr 25 08:07:45 CEST 2018   EN: 3.440 GM2: 0.452  GM3:-0.0517  RAES: 1.80
     2s    -20.229985    2.439742
     2p    -15.503117    2.137023


            Z     q(EN)     CN     RAES       Cart. coordinates
     1  N   5.0   -0.46    2.01    1.90    -1.51409     1.11426    -0.59489
     2  C   4.0    0.30    3.03    3.02    -0.40215    -0.92755    -0.10331
     3  N   5.0   -0.04    2.44    1.90    -1.47204    -3.34600    -0.73029
     4  N   5.0   -0.18    1.00    1.90    -3.28626    -4.22111    -1.47474
     5  O   6.0   -0.04    1.44    1.80     1.15706    -5.28477     0.35293
     6  N   5.0   -0.19    2.03    1.90     2.68521    -3.66367     1.23291
     7  C   4.0    0.12    3.04    3.02     2.01051    -1.32685     1.07440
     8  H   1.0    0.33    1.00    1.43    -3.22607     0.99094    -1.44768
     9  H   1.0    0.17    1.00    1.43     3.19994     0.16335     1.74930

           ------------------------------------------------- 
          |        Self-Consistent Charge Iterations        |
           ------------------------------------------------- 
q/qsh data taken from xtbrestart
CAMM data taken from xtbrestart

          ...................................................
          :                      SETUP                      :
          :.................................................:
          :  # basis functions                  30          :
          :  # atomic orbitals                  30          :
          :  # shells                           16          :
          :  # electrons                        36          :
          :  max. iterations                   250          :
          :  Hamiltonian                  GFN2-xTB          :
          :  restarted?                       true          :
          :  GBSA solvation                  false          :
          :  PC potential                    false          :
          :  electronic temp.          300.0000000     K    :
          :  accuracy                    0.2000000          :
          :  -> integral cutoff          0.3198970E+02      :
          :  -> integral neglect         0.2000000E-08      :
          :  -> SCF convergence          0.2000000E-06 Eh   :
          :  -> wf. convergence          0.2000000E-04 e    :
          :  Broyden damping             0.4000000          :
          ...................................................

 iter      E             dE          RMSdq      gap      omega  full diag
   1    -21.0001051 -0.210001E+02  0.695E+00    1.58       0.0  T
   2    -21.0700651 -0.699600E-01  0.410E+00    1.23       1.0  T
   3    -21.0869520 -0.168868E-01  0.235E+00    1.01       1.0  T
   4    -21.0979069 -0.109549E-01  0.664E-01    0.88       1.0  T
   5    -21.0989603 -0.105337E-02  0.301E-01    0.73       1.0  T
   6    -21.0994899 -0.529631E-03  0.178E-01    0.79       1.0  T
   7    -21.0995980 -0.108079E-03  0.483E-02    0.77       1.0  T
   8    -21.0996062 -0.824580E-05  0.216E-02    0.77       1.5  T
   9    -21.0996065 -0.301555E-06  0.891E-03    0.77       3.7  T
  10    -21.0996069 -0.323323E-06  0.314E-03    0.77      10.6  T
  11    -21.0996069 -0.127259E-07  0.120E-03    0.77      27.7  T
  12    -21.0996069 -0.296689E-08  0.244E-04    0.77     136.8  T
  13    -21.0996069 -0.226130E-10  0.655E-05    0.77     508.8  T
  14    -21.0996069 -0.140759E-10  0.170E-05    0.77    1955.6  T

   *** convergence criteria satisfied after 14 iterations ***

         #    Occupation            Energy/Eh            Energy/eV
      -------------------------------------------------------------
         1        2.0000           -0.7586664             -20.6444
       ...           ...                  ...                  ...
        12        2.0000           -0.5400443             -14.6954
        13        2.0000           -0.5319995             -14.4764
        14        2.0000           -0.5021420             -13.6640
        15        2.0000           -0.4956519             -13.4874
        16        2.0000           -0.4558502             -12.4043
        17        2.0000           -0.4397448             -11.9661
        18        2.0000           -0.3979099             -10.8277 (HOMO)
        19        0.0000           -0.3696806             -10.0595 (LUMO)
        20                         -0.2939762              -7.9995
        21                         -0.2879537              -7.8356
        22                         -0.1992427              -5.4217
        23                         -0.0021686              -0.0590
       ...                                ...                  ...
        30                          0.7369583              20.0537
      -------------------------------------------------------------
                  HL-Gap            0.0282294 Eh            0.7682 eV
             Fermi-level           -0.3837952 Eh          -10.4436 eV

 SCC (total)                   0 d,  0 h,  0 min,  0.008 sec
 SCC setup                      ...        0 min,  0.000 sec (  1.761%)
 Dispersion                     ...        0 min,  0.000 sec (  0.776%)
 integral evaluation            ...        0 min,  0.001 sec ( 14.344%)
 zeroth order Hamiltonian       ...        0 min,  0.000 sec (  0.407%)
 iterations                     ...        0 min,  0.004 sec ( 54.034%)
 molecular gradient             ...        0 min,  0.002 sec ( 25.831%)
 printout                       ...        0 min,  0.000 sec (  2.374%)

         :::::::::::::::::::::::::::::::::::::::::::::::::::::
         ::                     SUMMARY                     ::
         :::::::::::::::::::::::::::::::::::::::::::::::::::::
         :: total energy              -20.866991181507 Eh   ::
         :: gradient norm               0.008012232595 Eh/α ::
         :: HOMO-LUMO gap               0.768159809309 eV   ::
         ::.................................................::
         :: SCC energy                -21.099606868325 Eh   ::
         :: -> isotropic ES             0.027780086816 Eh   ::
         :: -> anisotropic ES           0.003452544033 Eh   ::
         :: -> anisotropic XC           0.029834367999 Eh   ::
         :: -> dispersion              -0.006056818588 Eh   ::
         :: repulsion energy            0.232612553184 Eh   ::
         :: add. restraining            0.000000000000 Eh   ::
         :::::::::::::::::::::::::::::::::::::::::::::::::::::

           -------------------------------------------------
          |                Property Printout                |
           -------------------------------------------------

    * Orbital Energies and Occupations

         #    Occupation            Energy/Eh            Energy/eV
      -------------------------------------------------------------
         1        2.0000           -0.7586664             -20.6444
       ...           ...                  ...                  ...
         6        2.0000           -0.6530218             -17.7696
         7        2.0000           -0.6262157             -17.0402
         8        2.0000           -0.6159123             -16.7598
         9        2.0000           -0.5839352             -15.8897
        10        2.0000           -0.5788362             -15.7509
        11        2.0000           -0.5540198             -15.0756
        12        2.0000           -0.5400443             -14.6954
        13        2.0000           -0.5319995             -14.4764
        14        2.0000           -0.5021420             -13.6640
        15        2.0000           -0.4956519             -13.4874
        16        2.0000           -0.4558502             -12.4043
        17        2.0000           -0.4397448             -11.9661
        18        2.0000           -0.3979099             -10.8277 (HOMO)
        19        0.0000           -0.3696806             -10.0595 (LUMO)
        20                         -0.2939762              -7.9995
        21                         -0.2879537              -7.8356
        22                         -0.1992427              -5.4217
        23                         -0.0021686              -0.0590
        24                          0.0537080               1.4615
        25                          0.0926478               2.5211
        26                          0.2203902               5.9971
        27                          0.3176668               8.6442
        28                          0.4074893              11.0883
        29                          0.5472643              14.8918
        30                          0.7369583              20.0537
      -------------------------------------------------------------
                  HL-Gap            0.0282294 Eh            0.7682 eV
             Fermi-level           -0.3837952 Eh          -10.4436 eV

   #   Z        covCN         q      C6AA      α(0)
   1   7 N      1.778    -0.273    27.896     7.822
   2   6 C      2.828     0.163    24.466     8.105
   3   7 N      2.297     0.216    17.894     6.280
   4   7 N      0.985    -0.130    23.431     6.962
   5   8 O      1.331    -0.274    18.943     5.855
   6   7 N      1.860     0.036    21.294     6.840
   7   6 C      2.858    -0.002    28.061     8.683
   8   1 H      0.860     0.178     1.224     1.733
   9   1 H      0.927     0.084     1.938     2.177

 Mol. C6AA /au·bohr⁶  :       1295.699392
 Mol. C8AA /au·bohr⁸  :      29620.948458
 Mol. α(0) /au        :         54.455518


Wiberg/Mayer (AO) data.
largest (>0.10) Wiberg bond orders for each atom
          total WBO             WBO to atom ...
     1  N   3.106        C    2 1.784    H    8 0.936    N    4 0.122
     2  C   3.952        N    1 1.784    C    7 1.124    N    3 0.927
     3  N   3.782        N    4 2.310    C    2 0.927    O    5 0.371
     4  N   2.834        N    3 2.310    O    5 0.265    N    1 0.122
     5  O   2.269        N    6 1.317    N    3 0.371    N    4 0.265    C    7 0.178
     6  N   3.224        C    7 1.621    O    5 1.317
     7  C   3.968        N    6 1.621    C    2 1.124    H    9 0.959    O    5 0.178
     8  H   0.968        N    1 0.936
     9  H   0.993        C    7 0.959

molecular dipole:
                 x           y           z       tot (Debye)
 q only:       -0.075       0.877       0.013
   full:       -0.235       0.889      -0.074       2.344
molecular quadrupole (traceless):
                xx          xy          yy          xz          yz          zz
 q only:        4.415       0.880      -7.806       1.007       0.055       3.391
  q+dip:        4.947       0.880     -10.147       0.358      -0.073       5.199
   full:        4.290       0.774     -11.020      -0.919      -0.228       6.730


           -------------------------------------------------
          | TOTAL ENERGY              -20.866991181507 Eh   |
          | GRADIENT NORM               0.008012232595 Eh/α |
          | HOMO-LUMO GAP               0.768159809309 eV   |
           -------------------------------------------------

------------------------------------------------------------------------
 * finished run on 2021/06/02 at 10:00:07.210     
------------------------------------------------------------------------
 total:
 * wall-time:     0 d,  0 h,  0 min,  0.015 sec
 *  cpu-time:     0 d,  0 h,  0 min,  0.015 sec
 * ratio c/w:     0.986 speedup
 SCF:
 * wall-time:     0 d,  0 h,  0 min,  0.008 sec
 *  cpu-time:     0 d,  0 h,  0 min,  0.008 sec
 * ratio c/w:     1.000 speedup

