      -----------------------------------------------------------      
     |                   =====================                   |     
     |                           x T B                           |     
     |                   =====================                   |     
     |                         S. Grimme                         |     
     |          Mulliken Center for Theoretical Chemistry        |     
     |                    University of Bonn                     |     
     |                 Version 6.1.4 (SAW190525)                 |     
      -----------------------------------------------------------      

   This program is distributed in the hope that it will be useful,
   but WITHOUT ANY WARRANTY; without even the implied warranty of
   MERCHANTABILITY or FITNESS FOR A PARTICULAR PURPOSE.
   
   FOR NON-COMMERCIAL, ACADEMIA USE ONLY.
   
   Cite this work as:
   S. Grimme, C. Bannwarth, P. Shushkov, J. Comput. Theory Chem., 2017,
   13, 1989-2009. DOI: 10.1021/acs.jctc.7b00118
   C. Bannwarth, S. Ehlert and S. Grimme., J. Comput. Theory Chem., 2019,
   just accepted. DOI: 10.1021/acs.jctc.8b01176
   
   for sTDA-xTB:
   S. Grimme and C. Bannwarth, J. Chem. Phys., 2016, 145, 054103.
   DOI: 10.1063/1.4959605
   
   in the mass-spec context:
   V. Asgeirsson, C. Bauer and S. Grimme, Chem. Sci., 2017, 8, 4879.
   DOI: 10.1039/c7sc00601b
   
   for metadynamics refer to:
   S. Grimme, J. Chem. Theory Comput. Article ASAP, 2019,
   DOI: 10.1021/acs.jctc.9b00143
   
   with help from (in alphabetical order)
   C. Bannwarth, F. Bohle, G. Brandenburg, E. Caldeweyher, M. Checinski,
   S. Dohm, S. Ehlert, S. Ehrlich, F. März, H. Neugebauer, J. Pisarek,
   P. Pracht, P. Shushkov, and S. Spicher.
   
 * started run on 2021/06/02 at 10:00:06.549     

           -------------------------------------------------
          |                Calculation Setup                |
           -------------------------------------------------

          program call               : /groups/kemi/koerstz/opt/xtb/6.1/bin/xtb 7.xyz --gfn2 --acc 0.2 --chrg 0
          hostname                   : node305
          coordinate file            : 7.xyz
          omp threads                :                     1
          number of atoms            :                     9
          number of electrons        :                    36
          charge                     :                     0
          spin                       :                   0.0
          first test random number   :      0.41856422721313


########################################################################
# WARNING! Please study the warnings concerning your input carefully
#  - XTBPATH is not set, using XTBHOME instead
########################################################################

           ------------------------------------------------- 
          |                 G F N 2 - x T B                 |
          | Geometry, Frequencies, Noncovalent interactions |
          |            JCTC 2018 parametrisation            |
           ------------------------------------------------- 
             k(s)              :                1.8500
             k(p)              :                2.2300
             k(d)              :                2.2300
             k(f)              :                2.0000
             kEN (H0ij)        :               -2.0000
             D4 a1             :                0.5200
             D4 a2             :                5.0000
             D4 s6             :                1.0000
             D4 s8             :                2.7000
             D4 s9             :                5.0000
             alphaj            :                2.0000

  Z AO/shell   Hii/eV     exponent
  1     Wed Apr 25 08:07:45 CEST 2018   EN: 2.200 GM2: 0.406  GM3: 0.0800  RAES: 1.40
     1s    -10.707211    1.230000
  6     Wed Apr 25 08:07:45 CEST 2018   EN: 2.550 GM2: 0.538  GM3: 0.1500  RAES: 3.00
     2s    -13.970922    2.096432
     2p    -10.063292    1.800000
  7     Wed Apr 25 08:07:45 CEST 2018   EN: 3.040 GM2: 0.461  GM3:-0.0640  RAES: 1.90
     2s    -16.686243    2.339881
     2p    -12.523956    2.014332
  8     Wed Apr 25 08:07:45 CEST 2018   EN: 3.440 GM2: 0.452  GM3:-0.0517  RAES: 1.80
     2s    -20.229985    2.439742
     2p    -15.503117    2.137023


            Z     q(EN)     CN     RAES       Cart. coordinates
     1  N   5.0   -0.46    2.01    1.90    -1.49614     1.12199    -0.62585
     2  C   4.0    0.30    3.03    3.02    -0.40669    -0.92819    -0.09531
     3  N   5.0   -0.05    2.40    1.90    -1.48157    -3.34262    -0.73623
     4  N   5.0   -0.18    1.00    1.90    -3.33208    -4.24454    -1.36017
     5  O   6.0   -0.04    1.41    1.80     1.20932    -5.29162     0.27022
     6  N   5.0   -0.19    2.03    1.90     2.70589    -3.66797     1.19873
     7  C   4.0    0.12    3.04    3.02     1.99591    -1.33297     1.09760
     8  H   1.0    0.33    1.00    1.43    -3.19675     1.01916    -1.50489
     9  H   1.0    0.17    1.00    1.43     3.15422     0.16536     1.81454

           ------------------------------------------------- 
          |        Self-Consistent Charge Iterations        |
           ------------------------------------------------- 
q/qsh data taken from xtbrestart
CAMM data taken from xtbrestart

          ...................................................
          :                      SETUP                      :
          :.................................................:
          :  # basis functions                  30          :
          :  # atomic orbitals                  30          :
          :  # shells                           16          :
          :  # electrons                        36          :
          :  max. iterations                   250          :
          :  Hamiltonian                  GFN2-xTB          :
          :  restarted?                       true          :
          :  GBSA solvation                  false          :
          :  PC potential                    false          :
          :  electronic temp.          300.0000000     K    :
          :  accuracy                    0.2000000          :
          :  -> integral cutoff          0.3198970E+02      :
          :  -> integral neglect         0.2000000E-08      :
          :  -> SCF convergence          0.2000000E-06 Eh   :
          :  -> wf. convergence          0.2000000E-04 e    :
          :  Broyden damping             0.4000000          :
          ...................................................

 iter      E             dE          RMSdq      gap      omega  full diag
   1    -21.0946928 -0.210947E+02  0.137E+00    0.76       0.0  T
   2    -21.0954674 -0.774585E-03  0.736E-01    0.81       1.0  T
   3    -21.0939717  0.149571E-02  0.510E-01    0.67       1.0  T
   4    -21.0961648 -0.219315E-02  0.974E-02    0.76       1.0  T
   5    -21.0962113 -0.464617E-04  0.469E-02    0.75       1.0  T
   6    -21.0962164 -0.514068E-05  0.913E-03    0.74       3.7  T
   7    -21.0962166 -0.200362E-06  0.474E-03    0.75       7.0  T
   8    -21.0962166 -0.250624E-07  0.123E-03    0.75      27.2  T
   9    -21.0962166 -0.479332E-08  0.470E-04    0.75      71.0  T
  10    -21.0962166 -0.410587E-09  0.240E-04    0.75     138.9  T
  11    -21.0962166 -0.156028E-09  0.750E-05    0.75     444.3  T
  12    -21.0962166 -0.313669E-10  0.232E-05    0.75    1435.5  T

   *** convergence criteria satisfied after 12 iterations ***

         #    Occupation            Energy/Eh            Energy/eV
      -------------------------------------------------------------
         1        2.0000           -0.7571714             -20.6037
       ...           ...                  ...                  ...
        12        2.0000           -0.5405858             -14.7101
        13        2.0000           -0.5312422             -14.4558
        14        2.0000           -0.5019475             -13.6587
        15        2.0000           -0.4968779             -13.5207
        16        2.0000           -0.4553853             -12.3917
        17        2.0000           -0.4387187             -11.9381
        18        2.0000           -0.3977139             -10.8223 (HOMO)
        19        0.0000           -0.3703086             -10.0766 (LUMO)
        20                         -0.2958741              -8.0511
        21                         -0.2904423              -7.9033
        22                         -0.2003529              -5.4519
        23                         -0.0047225              -0.1285
       ...                                ...                  ...
        30                          0.7281315              19.8135
      -------------------------------------------------------------
                  HL-Gap            0.0274054 Eh            0.7457 eV
             Fermi-level           -0.3840112 Eh          -10.4495 eV

 SCC (total)                   0 d,  0 h,  0 min,  0.007 sec
 SCC setup                      ...        0 min,  0.000 sec (  1.713%)
 Dispersion                     ...        0 min,  0.000 sec (  0.787%)
 integral evaluation            ...        0 min,  0.001 sec ( 15.007%)
 zeroth order Hamiltonian       ...        0 min,  0.000 sec (  0.502%)
 iterations                     ...        0 min,  0.004 sec ( 50.071%)
 molecular gradient             ...        0 min,  0.002 sec ( 26.569%)
 printout                       ...        0 min,  0.000 sec (  4.848%)

         :::::::::::::::::::::::::::::::::::::::::::::::::::::
         ::                     SUMMARY                     ::
         :::::::::::::::::::::::::::::::::::::::::::::::::::::
         :: total energy              -20.866384980102 Eh   ::
         :: gradient norm               0.016776762229 Eh/α ::
         :: HOMO-LUMO gap               0.745738198643 eV   ::
         ::.................................................::
         :: SCC energy                -21.096216640935 Eh   ::
         :: -> isotropic ES             0.027937401822 Eh   ::
         :: -> anisotropic ES           0.003297646859 Eh   ::
         :: -> anisotropic XC           0.029978569178 Eh   ::
         :: -> dispersion              -0.006055058651 Eh   ::
         :: repulsion energy            0.229828457346 Eh   ::
         :: add. restraining            0.000000000000 Eh   ::
         :::::::::::::::::::::::::::::::::::::::::::::::::::::

           -------------------------------------------------
          |                Property Printout                |
           -------------------------------------------------

    * Orbital Energies and Occupations

         #    Occupation            Energy/Eh            Energy/eV
      -------------------------------------------------------------
         1        2.0000           -0.7571714             -20.6037
       ...           ...                  ...                  ...
         6        2.0000           -0.6518051             -17.7365
         7        2.0000           -0.6255195             -17.0213
         8        2.0000           -0.6148425             -16.7307
         9        2.0000           -0.5833800             -15.8746
        10        2.0000           -0.5781539             -15.7324
        11        2.0000           -0.5538801             -15.0718
        12        2.0000           -0.5405858             -14.7101
        13        2.0000           -0.5312422             -14.4558
        14        2.0000           -0.5019475             -13.6587
        15        2.0000           -0.4968779             -13.5207
        16        2.0000           -0.4553853             -12.3917
        17        2.0000           -0.4387187             -11.9381
        18        2.0000           -0.3977139             -10.8223 (HOMO)
        19        0.0000           -0.3703086             -10.0766 (LUMO)
        20                         -0.2958741              -8.0511
        21                         -0.2904423              -7.9033
        22                         -0.2003529              -5.4519
        23                         -0.0047225              -0.1285
        24                          0.0528417               1.4379
        25                          0.0911816               2.4812
        26                          0.2201686               5.9911
        27                          0.3142185               8.5503
        28                          0.4047551              11.0139
        29                          0.5414655              14.7340
        30                          0.7281315              19.8135
      -------------------------------------------------------------
                  HL-Gap            0.0274054 Eh            0.7457 eV
             Fermi-level           -0.3840112 Eh          -10.4495 eV

   #   Z        covCN         q      C6AA      α(0)
   1   7 N      1.778    -0.273    27.915     7.824
   2   6 C      2.827     0.164    24.456     8.103
   3   7 N      2.262     0.213    17.987     6.296
   4   7 N      0.984    -0.124    23.326     6.946
   5   8 O      1.297    -0.276    19.040     5.867
   6   7 N      1.859     0.037    21.266     6.835
   7   6 C      2.856    -0.002    28.073     8.684
   8   1 H      0.860     0.178     1.226     1.735
   9   1 H      0.926     0.084     1.937     2.176

 Mol. C6AA /au·bohr⁶  :       1296.472742
 Mol. C8AA /au·bohr⁸  :      29637.299311
 Mol. α(0) /au        :         54.466978


Wiberg/Mayer (AO) data.
largest (>0.10) Wiberg bond orders for each atom
          total WBO             WBO to atom ...
     1  N   3.108        C    2 1.779    H    8 0.936    N    4 0.122
     2  C   3.952        N    1 1.779    C    7 1.127    N    3 0.927
     3  N   3.778        N    4 2.315    C    2 0.927    O    5 0.360
     4  N   2.841        N    3 2.315    O    5 0.264    N    1 0.122
     5  O   2.267        N    6 1.323    N    3 0.360    N    4 0.264    C    7 0.178
     6  N   3.227        C    7 1.614    O    5 1.323
     7  C   3.967        N    6 1.614    C    2 1.127    H    9 0.959    O    5 0.178
     8  H   0.968        N    1 0.936
     9  H   0.993        C    7 0.959

molecular dipole:
                 x           y           z       tot (Debye)
 q only:       -0.099       0.880       0.021
   full:       -0.263       0.895      -0.075       2.379
molecular quadrupole (traceless):
                xx          xy          yy          xz          yz          zz
 q only:        4.326       1.020      -7.863       1.172      -0.003       3.537
  q+dip:        4.784       0.986     -10.206       0.641      -0.104       5.421
   full:        4.099       0.872     -11.084      -0.595      -0.252       6.985


           -------------------------------------------------
          | TOTAL ENERGY              -20.866384980102 Eh   |
          | GRADIENT NORM               0.016776762229 Eh/α |
          | HOMO-LUMO GAP               0.745738198643 eV   |
           -------------------------------------------------

------------------------------------------------------------------------
 * finished run on 2021/06/02 at 10:00:06.564     
------------------------------------------------------------------------
 total:
 * wall-time:     0 d,  0 h,  0 min,  0.015 sec
 *  cpu-time:     0 d,  0 h,  0 min,  0.015 sec
 * ratio c/w:     0.988 speedup
 SCF:
 * wall-time:     0 d,  0 h,  0 min,  0.007 sec
 *  cpu-time:     0 d,  0 h,  0 min,  0.007 sec
 * ratio c/w:     1.000 speedup

