      -----------------------------------------------------------      
     |                   =====================                   |     
     |                           x T B                           |     
     |                   =====================                   |     
     |                         S. Grimme                         |     
     |          Mulliken Center for Theoretical Chemistry        |     
     |                    University of Bonn                     |     
     |                 Version 6.1.4 (SAW190525)                 |     
      -----------------------------------------------------------      

   This program is distributed in the hope that it will be useful,
   but WITHOUT ANY WARRANTY; without even the implied warranty of
   MERCHANTABILITY or FITNESS FOR A PARTICULAR PURPOSE.
   
   FOR NON-COMMERCIAL, ACADEMIA USE ONLY.
   
   Cite this work as:
   S. Grimme, C. Bannwarth, P. Shushkov, J. Comput. Theory Chem., 2017,
   13, 1989-2009. DOI: 10.1021/acs.jctc.7b00118
   C. Bannwarth, S. Ehlert and S. Grimme., J. Comput. Theory Chem., 2019,
   just accepted. DOI: 10.1021/acs.jctc.8b01176
   
   for sTDA-xTB:
   S. Grimme and C. Bannwarth, J. Chem. Phys., 2016, 145, 054103.
   DOI: 10.1063/1.4959605
   
   in the mass-spec context:
   V. Asgeirsson, C. Bauer and S. Grimme, Chem. Sci., 2017, 8, 4879.
   DOI: 10.1039/c7sc00601b
   
   for metadynamics refer to:
   S. Grimme, J. Chem. Theory Comput. Article ASAP, 2019,
   DOI: 10.1021/acs.jctc.9b00143
   
   with help from (in alphabetical order)
   C. Bannwarth, F. Bohle, G. Brandenburg, E. Caldeweyher, M. Checinski,
   S. Dohm, S. Ehlert, S. Ehrlich, F. März, H. Neugebauer, J. Pisarek,
   P. Pracht, P. Shushkov, and S. Spicher.
   
 * started run on 2021/06/02 at 10:00:06.749     

           -------------------------------------------------
          |                Calculation Setup                |
           -------------------------------------------------

          program call               : /groups/kemi/koerstz/opt/xtb/6.1/bin/xtb 8.xyz --gfn2 --acc 0.2 --chrg 0
          hostname                   : node305
          coordinate file            : 8.xyz
          omp threads                :                     1
          number of atoms            :                     9
          number of electrons        :                    36
          charge                     :                     0
          spin                       :                   0.0
          first test random number   :      0.50069729357924


########################################################################
# WARNING! Please study the warnings concerning your input carefully
#  - XTBPATH is not set, using XTBHOME instead
########################################################################

           ------------------------------------------------- 
          |                 G F N 2 - x T B                 |
          | Geometry, Frequencies, Noncovalent interactions |
          |            JCTC 2018 parametrisation            |
           ------------------------------------------------- 
             k(s)              :                1.8500
             k(p)              :                2.2300
             k(d)              :                2.2300
             k(f)              :                2.0000
             kEN (H0ij)        :               -2.0000
             D4 a1             :                0.5200
             D4 a2             :                5.0000
             D4 s6             :                1.0000
             D4 s8             :                2.7000
             D4 s9             :                5.0000
             alphaj            :                2.0000

  Z AO/shell   Hii/eV     exponent
  1     Wed Apr 25 08:07:45 CEST 2018   EN: 2.200 GM2: 0.406  GM3: 0.0800  RAES: 1.40
     1s    -10.707211    1.230000
  6     Wed Apr 25 08:07:45 CEST 2018   EN: 2.550 GM2: 0.538  GM3: 0.1500  RAES: 3.00
     2s    -13.970922    2.096432
     2p    -10.063292    1.800000
  7     Wed Apr 25 08:07:45 CEST 2018   EN: 3.040 GM2: 0.461  GM3:-0.0640  RAES: 1.90
     2s    -16.686243    2.339881
     2p    -12.523956    2.014332
  8     Wed Apr 25 08:07:45 CEST 2018   EN: 3.440 GM2: 0.452  GM3:-0.0517  RAES: 1.80
     2s    -20.229985    2.439742
     2p    -15.503117    2.137023


            Z     q(EN)     CN     RAES       Cart. coordinates
     1  N   5.0   -0.46    2.00    1.90    -1.48886     1.13192    -0.63423
     2  C   4.0    0.30    3.03    3.02    -0.40961    -0.92657    -0.09400
     3  N   5.0   -0.05    2.39    1.90    -1.48816    -3.34493    -0.73364
     4  N   5.0   -0.18    1.00    1.90    -3.35435    -4.26323    -1.29423
     5  O   6.0   -0.04    1.40    1.80     1.23292    -5.28964     0.22138
     6  N   5.0   -0.19    2.03    1.90     2.71422    -3.67082     1.17435
     7  C   4.0    0.12    3.04    3.02     1.98839    -1.33266     1.11047
     8  H   1.0    0.33    1.00    1.43    -3.17928     1.03144    -1.54888
     9  H   1.0    0.17    1.00    1.43     3.13685     0.16306     1.85741

           ------------------------------------------------- 
          |        Self-Consistent Charge Iterations        |
           ------------------------------------------------- 
q/qsh data taken from xtbrestart
CAMM data taken from xtbrestart

          ...................................................
          :                      SETUP                      :
          :.................................................:
          :  # basis functions                  30          :
          :  # atomic orbitals                  30          :
          :  # shells                           16          :
          :  # electrons                        36          :
          :  max. iterations                   250          :
          :  Hamiltonian                  GFN2-xTB          :
          :  restarted?                       true          :
          :  GBSA solvation                  false          :
          :  PC potential                    false          :
          :  electronic temp.          300.0000000     K    :
          :  accuracy                    0.2000000          :
          :  -> integral cutoff          0.3198970E+02      :
          :  -> integral neglect         0.2000000E-08      :
          :  -> SCF convergence          0.2000000E-06 Eh   :
          :  -> wf. convergence          0.2000000E-04 e    :
          :  Broyden damping             0.4000000          :
          ...................................................

 iter      E             dE          RMSdq      gap      omega  full diag
   1    -20.9901263 -0.209901E+02  0.687E+00    1.47       0.0  T
   2    -21.0590403 -0.689140E-01  0.420E+00    1.17       1.0  T
   3    -21.0791668 -0.201265E-01  0.236E+00    0.95       1.0  T
   4    -21.0894150 -0.102483E-01  0.790E-01    0.87       1.0  T
   5    -21.0912937 -0.187867E-02  0.349E-01    0.69       1.0  T
   6    -21.0921880 -0.894272E-03  0.182E-01    0.76       1.0  T
   7    -21.0922883 -0.100355E-03  0.536E-02    0.74       1.0  T
   8    -21.0922993 -0.109468E-04  0.227E-02    0.74       1.5  T
   9    -21.0922997 -0.431004E-06  0.100E-02    0.74       3.3  T
  10    -21.0923001 -0.342724E-06  0.330E-03    0.74      10.1  T
  11    -21.0923001 -0.196981E-07  0.142E-03    0.74      23.5  T
  12    -21.0923001 -0.359779E-08  0.244E-04    0.74     136.9  T
  13    -21.0923001 -0.250751E-10  0.568E-05    0.74     587.3  T
  14    -21.0923001 -0.102673E-10  0.183E-05    0.74    1822.5  T

   *** convergence criteria satisfied after 14 iterations ***

         #    Occupation            Energy/Eh            Energy/eV
      -------------------------------------------------------------
         1        2.0000           -0.7571866             -20.6041
       ...           ...                  ...                  ...
        12        2.0000           -0.5406006             -14.7105
        13        2.0000           -0.5306229             -14.4390
        14        2.0000           -0.5021340             -13.6638
        15        2.0000           -0.4972283             -13.5303
        16        2.0000           -0.4552566             -12.3882
        17        2.0000           -0.4382077             -11.9242
        18        2.0000           -0.3976594             -10.8209 (HOMO)
        19        0.0000           -0.3704579             -10.0807 (LUMO)
        20                         -0.2969291              -8.0799
        21                         -0.2910976              -7.9212
        22                         -0.2019058              -5.4941
        23                         -0.0085310              -0.2321
       ...                                ...                  ...
        30                          0.7201112              19.5952
      -------------------------------------------------------------
                  HL-Gap            0.0272015 Eh            0.7402 eV
             Fermi-level           -0.3840586 Eh          -10.4508 eV

 SCC (total)                   0 d,  0 h,  0 min,  0.008 sec
 SCC setup                      ...        0 min,  0.000 sec (  1.648%)
 Dispersion                     ...        0 min,  0.000 sec (  0.780%)
 integral evaluation            ...        0 min,  0.001 sec ( 14.100%)
 zeroth order Hamiltonian       ...        0 min,  0.000 sec (  0.541%)
 iterations                     ...        0 min,  0.004 sec ( 54.857%)
 molecular gradient             ...        0 min,  0.002 sec ( 25.439%)
 printout                       ...        0 min,  0.000 sec (  2.176%)

         :::::::::::::::::::::::::::::::::::::::::::::::::::::
         ::                     SUMMARY                     ::
         :::::::::::::::::::::::::::::::::::::::::::::::::::::
         :: total energy              -20.865950948653 Eh   ::
         :: gradient norm               0.022065351348 Eh/α ::
         :: HOMO-LUMO gap               0.740191081185 eV   ::
         ::.................................................::
         :: SCC energy                -21.092300078503 Eh   ::
         :: -> isotropic ES             0.027745676228 Eh   ::
         :: -> anisotropic ES           0.003286025561 Eh   ::
         :: -> anisotropic XC           0.030112195689 Eh   ::
         :: -> dispersion              -0.006052231916 Eh   ::
         :: repulsion energy            0.226345873034 Eh   ::
         :: add. restraining            0.000000000000 Eh   ::
         :::::::::::::::::::::::::::::::::::::::::::::::::::::

           -------------------------------------------------
          |                Property Printout                |
           -------------------------------------------------

    * Orbital Energies and Occupations

         #    Occupation            Energy/Eh            Energy/eV
      -------------------------------------------------------------
         1        2.0000           -0.7571866             -20.6041
       ...           ...                  ...                  ...
         6        2.0000           -0.6513843             -17.7251
         7        2.0000           -0.6249596             -17.0060
         8        2.0000           -0.6141151             -16.7109
         9        2.0000           -0.5832343             -15.8706
        10        2.0000           -0.5782217             -15.7342
        11        2.0000           -0.5531564             -15.0522
        12        2.0000           -0.5406006             -14.7105
        13        2.0000           -0.5306229             -14.4390
        14        2.0000           -0.5021340             -13.6638
        15        2.0000           -0.4972283             -13.5303
        16        2.0000           -0.4552566             -12.3882
        17        2.0000           -0.4382077             -11.9242
        18        2.0000           -0.3976594             -10.8209 (HOMO)
        19        0.0000           -0.3704579             -10.0807 (LUMO)
        20                         -0.2969291              -8.0799
        21                         -0.2910976              -7.9212
        22                         -0.2019058              -5.4941
        23                         -0.0085310              -0.2321
        24                          0.0492183               1.3393
        25                          0.0916582               2.4941
        26                          0.2165090               5.8915
        27                          0.3098236               8.4307
        28                          0.4000385              10.8856
        29                          0.5343687              14.5409
        30                          0.7201112              19.5952
      -------------------------------------------------------------
                  HL-Gap            0.0272015 Eh            0.7402 eV
             Fermi-level           -0.3840586 Eh          -10.4508 eV

   #   Z        covCN         q      C6AA      α(0)
   1   7 N      1.777    -0.273    27.913     7.824
   2   6 C      2.826     0.164    24.459     8.104
   3   7 N      2.254     0.211    18.029     6.303
   4   7 N      0.984    -0.123    23.300     6.943
   5   8 O      1.289    -0.274    19.028     5.864
   6   7 N      1.858     0.038    21.255     6.833
   7   6 C      2.855    -0.003    28.090     8.687
   8   1 H      0.860     0.177     1.231     1.738
   9   1 H      0.926     0.084     1.934     2.175

 Mol. C6AA /au·bohr⁶  :       1296.648100
 Mol. C8AA /au·bohr⁸  :      29641.259825
 Mol. α(0) /au        :         54.470404


Wiberg/Mayer (AO) data.
largest (>0.10) Wiberg bond orders for each atom
          total WBO             WBO to atom ...
     1  N   3.108        C    2 1.777    H    8 0.937    N    4 0.121
     2  C   3.951        N    1 1.777    C    7 1.129    N    3 0.926
     3  N   3.776        N    4 2.316    C    2 0.926    O    5 0.358
     4  N   2.843        N    3 2.316    O    5 0.264    N    1 0.121
     5  O   2.270        N    6 1.328    N    3 0.358    N    4 0.264    C    7 0.179
     6  N   3.228        C    7 1.608    O    5 1.328
     7  C   3.967        N    6 1.608    C    2 1.129    H    9 0.959    O    5 0.179
     8  H   0.969        N    1 0.937
     9  H   0.993        C    7 0.959

molecular dipole:
                 x           y           z       tot (Debye)
 q only:       -0.100       0.872       0.026
   full:       -0.265       0.888      -0.076       2.363
molecular quadrupole (traceless):
                xx          xy          yy          xz          yz          zz
 q only:        4.236       1.042      -7.836       1.270      -0.070       3.600
  q+dip:        4.647       1.006     -10.188       0.826      -0.152       5.541
   full:        3.954       0.885     -11.074      -0.389      -0.303       7.120


           -------------------------------------------------
          | TOTAL ENERGY              -20.865950948653 Eh   |
          | GRADIENT NORM               0.022065351348 Eh/α |
          | HOMO-LUMO GAP               0.740191081185 eV   |
           -------------------------------------------------

------------------------------------------------------------------------
 * finished run on 2021/06/02 at 10:00:06.766     
------------------------------------------------------------------------
 total:
 * wall-time:     0 d,  0 h,  0 min,  0.017 sec
 *  cpu-time:     0 d,  0 h,  0 min,  0.016 sec
 * ratio c/w:     0.987 speedup
 SCF:
 * wall-time:     0 d,  0 h,  0 min,  0.008 sec
 *  cpu-time:     0 d,  0 h,  0 min,  0.008 sec
 * ratio c/w:     1.000 speedup

