      -----------------------------------------------------------      
     |                   =====================                   |     
     |                           x T B                           |     
     |                   =====================                   |     
     |                         S. Grimme                         |     
     |          Mulliken Center for Theoretical Chemistry        |     
     |                    University of Bonn                     |     
     |                 Version 6.1.4 (SAW190525)                 |     
      -----------------------------------------------------------      

   This program is distributed in the hope that it will be useful,
   but WITHOUT ANY WARRANTY; without even the implied warranty of
   MERCHANTABILITY or FITNESS FOR A PARTICULAR PURPOSE.
   
   FOR NON-COMMERCIAL, ACADEMIA USE ONLY.
   
   Cite this work as:
   S. Grimme, C. Bannwarth, P. Shushkov, J. Comput. Theory Chem., 2017,
   13, 1989-2009. DOI: 10.1021/acs.jctc.7b00118
   C. Bannwarth, S. Ehlert and S. Grimme., J. Comput. Theory Chem., 2019,
   just accepted. DOI: 10.1021/acs.jctc.8b01176
   
   for sTDA-xTB:
   S. Grimme and C. Bannwarth, J. Chem. Phys., 2016, 145, 054103.
   DOI: 10.1063/1.4959605
   
   in the mass-spec context:
   V. Asgeirsson, C. Bauer and S. Grimme, Chem. Sci., 2017, 8, 4879.
   DOI: 10.1039/c7sc00601b
   
   for metadynamics refer to:
   S. Grimme, J. Chem. Theory Comput. Article ASAP, 2019,
   DOI: 10.1021/acs.jctc.9b00143
   
   with help from (in alphabetical order)
   C. Bannwarth, F. Bohle, G. Brandenburg, E. Caldeweyher, M. Checinski,
   S. Dohm, S. Ehlert, S. Ehrlich, F. März, H. Neugebauer, J. Pisarek,
   P. Pracht, P. Shushkov, and S. Spicher.
   
 * started run on 2021/06/02 at 10:00:06.289     

           -------------------------------------------------
          |                Calculation Setup                |
           -------------------------------------------------

          program call               : /groups/kemi/koerstz/opt/xtb/6.1/bin/xtb 9.xyz --gfn2 --acc 0.2 --chrg 0
          hostname                   : node305
          coordinate file            : 9.xyz
          omp threads                :                     1
          number of atoms            :                     9
          number of electrons        :                    36
          charge                     :                     0
          spin                       :                   0.0
          first test random number   :      0.25643761213738


########################################################################
# WARNING! Please study the warnings concerning your input carefully
#  - XTBPATH is not set, using XTBHOME instead
########################################################################

           ------------------------------------------------- 
          |                 G F N 2 - x T B                 |
          | Geometry, Frequencies, Noncovalent interactions |
          |            JCTC 2018 parametrisation            |
           ------------------------------------------------- 
             k(s)              :                1.8500
             k(p)              :                2.2300
             k(d)              :                2.2300
             k(f)              :                2.0000
             kEN (H0ij)        :               -2.0000
             D4 a1             :                0.5200
             D4 a2             :                5.0000
             D4 s6             :                1.0000
             D4 s8             :                2.7000
             D4 s9             :                5.0000
             alphaj            :                2.0000

  Z AO/shell   Hii/eV     exponent
  1     Wed Apr 25 08:07:45 CEST 2018   EN: 2.200 GM2: 0.406  GM3: 0.0800  RAES: 1.40
     1s    -10.707211    1.230000
  6     Wed Apr 25 08:07:45 CEST 2018   EN: 2.550 GM2: 0.538  GM3: 0.1500  RAES: 3.00
     2s    -13.970922    2.096432
     2p    -10.063292    1.800000
  7     Wed Apr 25 08:07:45 CEST 2018   EN: 3.040 GM2: 0.461  GM3:-0.0640  RAES: 1.90
     2s    -16.686243    2.339881
     2p    -12.523956    2.014332
  8     Wed Apr 25 08:07:45 CEST 2018   EN: 3.440 GM2: 0.452  GM3:-0.0517  RAES: 1.80
     2s    -20.229985    2.439742
     2p    -15.503117    2.137023


            Z     q(EN)     CN     RAES       Cart. coordinates
     1  N   5.0   -0.46    2.00    1.90    -1.46872     1.14220    -0.66377
     2  C   4.0    0.30    3.03    3.02    -0.41790    -0.92777    -0.09850
     3  N   5.0   -0.05    2.39    1.90    -1.49721    -3.35208    -0.73030
     4  N   5.0   -0.18    1.00    1.90    -3.38406    -4.28794    -1.17911
     5  O   6.0   -0.04    1.39    1.80     1.26493    -5.28050     0.14123
     6  N   5.0   -0.19    2.03    1.90     2.71995    -3.66434     1.12770
     7  C   4.0    0.12    3.04    3.02     1.97606    -1.32954     1.12286
     8  H   1.0    0.33    1.00    1.43    -3.15211     1.04560    -1.60995
     9  H   1.0    0.17    0.99    1.43     3.11117     0.15296     1.94848

           ------------------------------------------------- 
          |        Self-Consistent Charge Iterations        |
           ------------------------------------------------- 
q/qsh data taken from xtbrestart
CAMM data taken from xtbrestart

          ...................................................
          :                      SETUP                      :
          :.................................................:
          :  # basis functions                  30          :
          :  # atomic orbitals                  30          :
          :  # shells                           16          :
          :  # electrons                        36          :
          :  max. iterations                   250          :
          :  Hamiltonian                  GFN2-xTB          :
          :  restarted?                       true          :
          :  GBSA solvation                  false          :
          :  PC potential                    false          :
          :  electronic temp.          300.0000000     K    :
          :  accuracy                    0.2000000          :
          :  -> integral cutoff          0.3198970E+02      :
          :  -> integral neglect         0.2000000E-08      :
          :  -> SCF convergence          0.2000000E-06 Eh   :
          :  -> wf. convergence          0.2000000E-04 e    :
          :  Broyden damping             0.4000000          :
          ...................................................

 iter      E             dE          RMSdq      gap      omega  full diag
   1    -20.9916997 -0.209917E+02  0.657E+00    1.50       0.0  T
   2    -21.0583191 -0.666194E-01  0.404E+00    1.02       1.0  T
   3    -21.0784734 -0.201543E-01  0.222E+00    0.98       1.0  T
   4    -21.0877460 -0.927256E-02  0.636E-01    0.79       1.0  T
   5    -21.0886662 -0.920177E-03  0.235E-01    0.70       1.0  T
   6    -21.0887359 -0.697290E-04  0.196E-01    0.76       1.0  T
   7    -21.0889628 -0.226897E-03  0.483E-02    0.74       1.0  T
   8    -21.0889713 -0.850760E-05  0.206E-02    0.73       1.6  T
   9    -21.0889716 -0.293492E-06  0.805E-03    0.73       4.1  T
  10    -21.0889718 -0.195575E-06  0.331E-03    0.73      10.1  T
  11    -21.0889718 -0.304032E-07  0.143E-03    0.73      23.3  T
  12    -21.0889718 -0.291111E-08  0.244E-04    0.73     136.4  T
  13    -21.0889718 -0.534044E-10  0.103E-04    0.73     324.3  T
  14    -21.0889718 -0.116067E-10  0.211E-05    0.73    1582.5  T

   *** convergence criteria satisfied after 14 iterations ***

         #    Occupation            Energy/Eh            Energy/eV
      -------------------------------------------------------------
         1        2.0000           -0.7575473             -20.6139
       ...           ...                  ...                  ...
        12        2.0000           -0.5403697             -14.7042
        13        2.0000           -0.5300656             -14.4238
        14        2.0000           -0.5024378             -13.6720
        15        2.0000           -0.4971990             -13.5295
        16        2.0000           -0.4552436             -12.3878
        17        2.0000           -0.4378032             -11.9132
        18        2.0000           -0.3969689             -10.8021 (HOMO)
        19        0.0000           -0.3700443             -10.0694 (LUMO)
        20                         -0.2972260              -8.0879
        21                         -0.2906159              -7.9081
        22                         -0.2037995              -5.5457
        23                         -0.0114095              -0.3105
       ...                                ...                  ...
        30                          0.7174282              19.5222
      -------------------------------------------------------------
                  HL-Gap            0.0269246 Eh            0.7327 eV
             Fermi-level           -0.3835066 Eh          -10.4357 eV

 SCC (total)                   0 d,  0 h,  0 min,  0.008 sec
 SCC setup                      ...        0 min,  0.000 sec (  1.703%)
 Dispersion                     ...        0 min,  0.000 sec (  0.741%)
 integral evaluation            ...        0 min,  0.001 sec ( 14.315%)
 zeroth order Hamiltonian       ...        0 min,  0.000 sec (  0.410%)
 iterations                     ...        0 min,  0.004 sec ( 53.798%)
 molecular gradient             ...        0 min,  0.002 sec ( 26.397%)
 printout                       ...        0 min,  0.000 sec (  2.196%)

         :::::::::::::::::::::::::::::::::::::::::::::::::::::
         ::                     SUMMARY                     ::
         :::::::::::::::::::::::::::::::::::::::::::::::::::::
         :: total energy              -20.865059928663 Eh   ::
         :: gradient norm               0.024948886709 Eh/α ::
         :: HOMO-LUMO gap               0.732656229419 eV   ::
         ::.................................................::
         :: SCC energy                -21.088971823999 Eh   ::
         :: -> isotropic ES             0.027597313055 Eh   ::
         :: -> anisotropic ES           0.003344608483 Eh   ::
         :: -> anisotropic XC           0.030222203891 Eh   ::
         :: -> dispersion              -0.006051717848 Eh   ::
         :: repulsion energy            0.223908568505 Eh   ::
         :: add. restraining            0.000000000000 Eh   ::
         :::::::::::::::::::::::::::::::::::::::::::::::::::::

           -------------------------------------------------
          |                Property Printout                |
           -------------------------------------------------

    * Orbital Energies and Occupations

         #    Occupation            Energy/Eh            Energy/eV
      -------------------------------------------------------------
         1        2.0000           -0.7575473             -20.6139
       ...           ...                  ...                  ...
         6        2.0000           -0.6511841             -17.7196
         7        2.0000           -0.6250077             -17.0073
         8        2.0000           -0.6132651             -16.6878
         9        2.0000           -0.5833624             -15.8741
        10        2.0000           -0.5785331             -15.7427
        11        2.0000           -0.5521158             -15.0238
        12        2.0000           -0.5403697             -14.7042
        13        2.0000           -0.5300656             -14.4238
        14        2.0000           -0.5024378             -13.6720
        15        2.0000           -0.4971990             -13.5295
        16        2.0000           -0.4552436             -12.3878
        17        2.0000           -0.4378032             -11.9132
        18        2.0000           -0.3969689             -10.8021 (HOMO)
        19        0.0000           -0.3700443             -10.0694 (LUMO)
        20                         -0.2972260              -8.0879
        21                         -0.2906159              -7.9081
        22                         -0.2037995              -5.5457
        23                         -0.0114095              -0.3105
        24                          0.0446515               1.2150
        25                          0.0909013               2.4735
        26                          0.2096500               5.7049
        27                          0.3070833               8.3562
        28                          0.3981504              10.8342
        29                          0.5305384              14.4367
        30                          0.7174282              19.5222
      -------------------------------------------------------------
                  HL-Gap            0.0269246 Eh            0.7327 eV
             Fermi-level           -0.3835066 Eh          -10.4357 eV

   #   Z        covCN         q      C6AA      α(0)
   1   7 N      1.777    -0.273    27.907     7.823
   2   6 C      2.827     0.164    24.460     8.104
   3   7 N      2.251     0.210    18.045     6.305
   4   7 N      0.984    -0.123    23.289     6.941
   5   8 O      1.286    -0.273    19.009     5.861
   6   7 N      1.859     0.038    21.252     6.833
   7   6 C      2.853    -0.003    28.100     8.688
   8   1 H      0.859     0.176     1.239     1.743
   9   1 H      0.926     0.085     1.931     2.173

 Mol. C6AA /au·bohr⁶  :       1296.715141
 Mol. C8AA /au·bohr⁸  :      29642.231802
 Mol. α(0) /au        :         54.472191


Wiberg/Mayer (AO) data.
largest (>0.10) Wiberg bond orders for each atom
          total WBO             WBO to atom ...
     1  N   3.107        C    2 1.779    H    8 0.937    N    4 0.118
     2  C   3.951        N    1 1.779    C    7 1.128    N    3 0.924
     3  N   3.774        N    4 2.316    C    2 0.924    O    5 0.356
     4  N   2.844        N    3 2.316    O    5 0.263    N    1 0.118
     5  O   2.272        N    6 1.330    N    3 0.356    N    4 0.263    C    7 0.181
     6  N   3.230        C    7 1.606    O    5 1.330
     7  C   3.966        N    6 1.606    C    2 1.128    H    9 0.958    O    5 0.181
     8  H   0.969        N    1 0.937
     9  H   0.993        C    7 0.958

molecular dipole:
                 x           y           z       tot (Debye)
 q only:       -0.106       0.862       0.039
   full:       -0.272       0.878      -0.068       2.342
molecular quadrupole (traceless):
                xx          xy          yy          xz          yz          zz
 q only:        4.099       1.067      -7.800       1.421      -0.155       3.701
  q+dip:        4.434       1.027     -10.186       1.114      -0.173       5.752
   full:        3.737       0.884     -11.075      -0.057      -0.327       7.338


           -------------------------------------------------
          | TOTAL ENERGY              -20.865059928663 Eh   |
          | GRADIENT NORM               0.024948886709 Eh/α |
          | HOMO-LUMO GAP               0.732656229419 eV   |
           -------------------------------------------------

------------------------------------------------------------------------
 * finished run on 2021/06/02 at 10:00:06.304     
------------------------------------------------------------------------
 total:
 * wall-time:     0 d,  0 h,  0 min,  0.015 sec
 *  cpu-time:     0 d,  0 h,  0 min,  0.015 sec
 * ratio c/w:     0.986 speedup
 SCF:
 * wall-time:     0 d,  0 h,  0 min,  0.008 sec
 *  cpu-time:     0 d,  0 h,  0 min,  0.008 sec
 * ratio c/w:     1.000 speedup

